VARIABLES="w (rad/s)"  
"abs(F   1   1)" "angle(F   1   1)"
"abs(F   1   2)" "angle(F   1   2)"
"abs(F   1   3)" "angle(F   1   3)"
"abs(F   1   4)" "angle(F   1   4)"
"abs(F   1   5)" "angle(F   1   5)"
"abs(F   1   6)" "angle(F   1   6)"
Zone t="Diffraction force - beta =   0.000 deg",I=    50,F=POINT
  0.1000000E+00  0.6897854E+02 -0.1570704E+01  0.1115939E+00  0.1572003E+01  0.1629692E+01 -0.3114745E+01  0.7578977E+00 -0.1569595E+01  0.4698040E+03 -0.1570703E+01  0.2544935E-02  0.1756117E+00
  0.1387755E+00  0.1327509E+03 -0.1570697E+01  0.2149882E+00  0.1572101E+01  0.3115831E+01 -0.3111047E+01  0.1460093E+01 -0.1569516E+01  0.9041436E+03 -0.1570696E+01  0.4813025E-02  0.1862915E+00
  0.1775510E+00  0.2171029E+03 -0.1570688E+01  0.3518007E+00  0.1572311E+01  0.5045426E+01 -0.3106319E+01  0.2389252E+01 -0.1569279E+01  0.1478636E+04 -0.1570688E+01  0.7671213E-02  0.2009861E+00
  0.2163265E+00  0.3219187E+03 -0.1570677E+01  0.5210571E+00  0.1572551E+01  0.7380917E+01 -0.3100762E+01  0.3538754E+01 -0.1569052E+01  0.2192489E+04 -0.1570677E+01  0.1097982E-01  0.2196644E+00
  0.2551020E+00  0.4470912E+03 -0.1570663E+01  0.7242923E+00  0.1572790E+01  0.1007128E+02 -0.3094579E+01  0.4918677E+01 -0.1568803E+01  0.3044962E+04 -0.1570663E+01  0.1455910E-01  0.2429476E+00
  0.2938775E+00  0.5923923E+03 -0.1570647E+01  0.9583548E+00  0.1573139E+01  0.1305497E+02 -0.3087870E+01  0.6508173E+01 -0.1568462E+01  0.4034493E+04 -0.1570647E+01  0.1818927E-01  0.2716253E+00
  0.3326530E+00  0.7575993E+03 -0.1570628E+01  0.1224382E+01  0.1573486E+01  0.1625660E+02 -0.3081006E+01  0.8314903E+01 -0.1568111E+01  0.5159542E+04 -0.1570629E+01  0.2160955E-01  0.3065930E+00
  0.3714286E+00  0.9425403E+03 -0.1570606E+01  0.1522364E+01  0.1573957E+01  0.1959041E+02 -0.3074117E+01  0.1033865E+02 -0.1567642E+01  0.6418928E+04 -0.1570607E+01  0.2453668E-01  0.3502817E+00
  0.4102041E+00  0.1146920E+04 -0.1570581E+01  0.1854508E+01  0.1574355E+01  0.2296036E+02 -0.3067529E+01  0.1259427E+02 -0.1567243E+01  0.7810622E+04 -0.1570582E+01  0.2666620E-01  0.4060530E+00
  0.4489796E+00  0.1370272E+04 -0.1570551E+01  0.2216378E+01  0.1574931E+01  0.2626170E+02 -0.3061614E+01  0.1505107E+02 -0.1566683E+01  0.9331412E+04 -0.1570553E+01  0.2769998E-01  0.4797461E+00
  0.4877551E+00  0.1612423E+04 -0.1570516E+01  0.2601876E+01  0.1575343E+01  0.2938704E+02 -0.3056630E+01  0.1766879E+02 -0.1566263E+01  0.1098014E+05 -0.1570518E+01  0.2740939E-01  0.5833694E+00
  0.5265306E+00  0.1873108E+04 -0.1570475E+01  0.3017583E+01  0.1575989E+01  0.3221876E+02 -0.3053113E+01  0.2048993E+02 -0.1565611E+01  0.1275498E+05 -0.1570479E+01  0.2573491E-01  0.7395337E+00
  0.5653061E+00  0.2151552E+04 -0.1570427E+01  0.3471048E+01  0.1576500E+01  0.3463372E+02 -0.3051520E+01  0.2356873E+02 -0.1565112E+01  0.1465055E+05 -0.1570432E+01  0.2306581E-01  0.9974567E+00
  0.6040816E+00  0.2447427E+04 -0.1570371E+01  0.3936142E+01  0.1577058E+01  0.3652620E+02 -0.3052482E+01  0.2672492E+02 -0.1564558E+01  0.1666470E+05 -0.1570378E+01  0.2125358E-01  0.1427558E+01
  0.6428572E+00  0.2760517E+04 -0.1570307E+01  0.4450509E+01  0.1577839E+01  0.3776693E+02 -0.3056896E+01  0.3021779E+02 -0.1563777E+01  0.1879586E+05 -0.1570315E+01  0.2426186E-01  0.1990402E+01
  0.6816327E+00  0.3089438E+04 -0.1570233E+01  0.4957931E+01  0.1578514E+01  0.3825453E+02 -0.3065997E+01  0.3366094E+02 -0.1563106E+01  0.2103459E+05 -0.1570243E+01  0.3483881E-01  0.2438807E+01
  0.7204082E+00  0.3434603E+04 -0.1570148E+01  0.5528060E+01  0.1579139E+01  0.3787627E+02 -0.3081540E+01  0.3753222E+02 -0.1562485E+01  0.2338370E+05 -0.1570161E+01  0.5230935E-01  0.2708111E+01
  0.7591837E+00  0.3794136E+04 -0.1570053E+01  0.6075332E+01  0.1579914E+01  0.3655297E+02 -0.3106416E+01  0.4124134E+02 -0.1561709E+01  0.2583038E+05 -0.1570069E+01  0.7561061E-01  0.2869974E+01
  0.7979592E+00  0.4168365E+04 -0.1569946E+01  0.6713320E+01  0.1580422E+01  0.3419555E+02  0.3137545E+01  0.4557211E+02 -0.1561197E+01  0.2837677E+05 -0.1569965E+01  0.1045745E+00  0.2975335E+01
  0.8367347E+00  0.4555819E+04 -0.1569828E+01  0.7269600E+01  0.1581125E+01  0.3081919E+02  0.3074769E+01  0.4934715E+02 -0.1560514E+01  0.3101302E+05 -0.1569852E+01  0.1390344E+00  0.3049171E+01
  0.8755102E+00  0.4955660E+04 -0.1569698E+01  0.7935513E+01  0.1581861E+01  0.2644145E+02  0.2969524E+01  0.5386605E+02 -0.1559794E+01  0.3373307E+05 -0.1569727E+01  0.1795056E+00  0.3104212E+01
  0.9142857E+00  0.5367787E+04 -0.1569560E+01  0.8591182E+01  0.1582634E+01  0.2145119E+02  0.2779992E+01  0.5830803E+02 -0.1559015E+01  0.3653661E+05 -0.1569595E+01  0.2258986E+00 -0.3136551E+01
  0.9530612E+00  0.5789198E+04 -0.1569414E+01  0.9210506E+01  0.1582990E+01  0.1700002E+02  0.2413773E+01  0.6251781E+02 -0.1558685E+01  0.3940285E+05 -0.1569456E+01  0.2785351E+00 -0.3102218E+01
  0.9918368E+00  0.6220789E+04 -0.1569262E+01  0.9964454E+01  0.1583171E+01  0.1615793E+02  0.1809807E+01  0.6762825E+02 -0.1558498E+01  0.4233784E+05 -0.1569312E+01  0.3378821E+00 -0.3074399E+01
  0.1030612E+01  0.6661141E+04 -0.1569111E+01  0.1062611E+02  0.1584134E+01  0.2181504E+02  0.1265864E+01  0.7211053E+02 -0.1557524E+01  0.4533230E+05 -0.1569169E+01  0.4037662E+00 -0.3051117E+01
  0.1069388E+01  0.7106995E+04 -0.1568961E+01  0.1124711E+02  0.1584007E+01  0.3248336E+02  0.9631968E+00  0.7632199E+02 -0.1557681E+01  0.4836364E+05 -0.1569029E+01  0.4765635E+00 -0.3031326E+01
  0.1108163E+01  0.7559600E+04 -0.1568819E+01  0.1206582E+02  0.1584230E+01  0.4635348E+02  0.8007839E+00  0.8187024E+02 -0.1557467E+01  0.5144039E+05 -0.1568897E+01  0.5567144E+00 -0.3014740E+01
  0.1146939E+01  0.8017088E+04 -0.1568692E+01  0.1280561E+02  0.1584624E+01  0.6268649E+02  0.7056404E+00  0.8689164E+02 -0.1557130E+01  0.5455013E+05 -0.1568781E+01  0.6439173E+00 -0.3000552E+01
  0.1185714E+01  0.8475394E+04 -0.1568585E+01  0.1339152E+02  0.1584231E+01  0.8124042E+02  0.6446364E+00  0.9085334E+02 -0.1557555E+01  0.5766490E+05 -0.1568687E+01  0.7382355E+00 -0.2988221E+01
  0.1224490E+01  0.8936655E+04 -0.1568502E+01  0.1416199E+02  0.1583601E+01  0.1020879E+03  0.6012489E+00  0.9607607E+02 -0.1558156E+01  0.6079907E+05 -0.1568617E+01  0.8406702E+00 -0.2977885E+01
  0.1263265E+01  0.9397707E+04 -0.1568457E+01  0.1505837E+02  0.1583357E+01  0.1250736E+03  0.5692395E+00  0.1021473E+03 -0.1558411E+01  0.6393138E+05 -0.1568586E+01  0.9503850E+00 -0.2969148E+01
  0.1302041E+01  0.9856690E+04 -0.1568459E+01  0.1563190E+02  0.1584120E+01  0.1502056E+03  0.5448083E+00  0.1060255E+03 -0.1557680E+01  0.6704947E+05 -0.1568603E+01  0.1067486E+01 -0.2961589E+01
  0.1340816E+01  0.1031029E+05 -0.1568508E+01  0.1623210E+02  0.1582078E+01  0.1775967E+03  0.5248762E+00  0.1100952E+03 -0.1559737E+01  0.7013017E+05 -0.1568667E+01  0.1192216E+01 -0.2955215E+01
  0.1379592E+01  0.1076128E+05 -0.1568617E+01  0.1710796E+02  0.1580468E+01  0.2073757E+03  0.5076801E+00  0.1160175E+03 -0.1561351E+01  0.7319245E+05 -0.1568792E+01  0.1325245E+01 -0.2950130E+01
  0.1418367E+01  0.1120498E+05 -0.1568797E+01  0.1806679E+02  0.1579444E+01  0.2393978E+03  0.4927808E+00  0.1225018E+03 -0.1562491E+01  0.7620480E+05 -0.1568989E+01  0.1465525E+01 -0.2946025E+01
  0.1457143E+01  0.1163954E+05 -0.1569059E+01  0.1856903E+02  0.1579705E+01  0.2736860E+03  0.4797539E+00  0.1258967E+03 -0.1562156E+01  0.7915477E+05 -0.1569268E+01  0.1613217E+01 -0.2942660E+01
  0.1495918E+01  0.1206103E+05 -0.1569402E+01  0.1905891E+02  0.1576963E+01  0.3102917E+03  0.4679147E+00  0.1292156E+03 -0.1564929E+01  0.8201516E+05 -0.1569628E+01  0.1767993E+01 -0.2940020E+01
  0.1534694E+01  0.1247438E+05 -0.1569836E+01  0.1980728E+02  0.1574047E+01  0.3496210E+03  0.4563170E+00  0.1342760E+03 -0.1567852E+01  0.8481943E+05 -0.1570078E+01  0.1931406E+01 -0.2938335E+01
  0.1573469E+01  0.1287282E+05 -0.1570372E+01  0.2087518E+02  0.1571621E+01  0.3911768E+03  0.4453163E+00  0.1414861E+03 -0.1570362E+01  0.8752180E+05 -0.1570632E+01  0.2101251E+01 -0.2937395E+01
  0.1612245E+01  0.1325555E+05 -0.1571015E+01  0.2171009E+02  0.1571527E+01  0.4353532E+03  0.4348975E+00  0.1471229E+03 -0.1570396E+01  0.9011720E+05 -0.1571292E+01  0.2278747E+01 -0.2936889E+01
  0.1651020E+01  0.1361795E+05 -0.1571776E+01  0.2188270E+02  0.1569301E+01  0.4816021E+03  0.4250174E+00  0.1482916E+03 -0.1572746E+01  0.9257386E+05 -0.1572069E+01  0.2461834E+01 -0.2936861E+01
  0.1689796E+01  0.1396108E+05 -0.1572643E+01  0.2236304E+02  0.1565689E+01  0.5306660E+03  0.4150254E+00  0.1515305E+03 -0.1576352E+01  0.9489889E+05 -0.1572953E+01  0.2652201E+01 -0.2937395E+01
  0.1728571E+01  0.1428784E+05 -0.1573630E+01  0.2323695E+02  0.1560995E+01  0.5825582E+03  0.4047785E+00  0.1574325E+03 -0.1581114E+01  0.9711189E+05 -0.1573955E+01  0.2849860E+01 -0.2938607E+01
  0.1767347E+01  0.1459043E+05 -0.1574740E+01  0.2437543E+02  0.1557894E+01  0.6366866E+03  0.3945610E+00  0.1651090E+03 -0.1584192E+01  0.9916000E+05 -0.1575079E+01  0.3052439E+01 -0.2940338E+01
  0.1806122E+01  0.1486814E+05 -0.1575971E+01  0.2522878E+02  0.1556608E+01  0.6937148E+03  0.3845462E+00  0.1708649E+03 -0.1585428E+01  0.1010388E+06 -0.1576325E+01  0.3262024E+01 -0.2942257E+01
  0.1844898E+01  0.1511664E+05 -0.1577336E+01  0.2524286E+02  0.1556896E+01  0.7526437E+03  0.3746911E+00  0.1709463E+03 -0.1585301E+01  0.1027186E+06 -0.1577703E+01  0.3475162E+01 -0.2944489E+01
  0.1883674E+01  0.1533530E+05 -0.1578809E+01  0.2547986E+02  0.1549005E+01  0.8141221E+03  0.3647032E+00  0.1725302E+03 -0.1593147E+01  0.1041950E+06 -0.1579188E+01  0.3692660E+01 -0.2947071E+01
  0.1922449E+01  0.1553304E+05 -0.1580427E+01  0.2626286E+02  0.1544793E+01  0.8791971E+03  0.3541805E+00  0.1778120E+03 -0.1597397E+01  0.1055283E+06 -0.1580818E+01  0.3916883E+01 -0.2950122E+01
  0.1961224E+01  0.1569863E+05 -0.1582159E+01  0.2732230E+02  0.1536535E+01  0.9464396E+03  0.3434952E+00  0.1849400E+03 -0.1605556E+01  0.1066424E+06 -0.1582560E+01  0.4143295E+01 -0.2953554E+01
  0.2000000E+01  0.1583229E+05 -0.1584003E+01  0.2842672E+02  0.1534525E+01  0.1016512E+04  0.3327011E+00  0.1923811E+03 -0.1607653E+01  0.1075389E+06 -0.1584414E+01  0.4373487E+01 -0.2957201E+01
