VARIABLES="w (rad/s)"  
"abs(F   1   1)" "angle(F   1   1)"
"abs(F   1   2)" "angle(F   1   2)"
"abs(F   1   3)" "angle(F   1   3)"
"abs(F   1   4)" "angle(F   1   4)"
"abs(F   1   5)" "angle(F   1   5)"
"abs(F   1   6)" "angle(F   1   6)"
Zone t="Excitation force - beta =   0.000 deg",I=    50,F=POINT
  0.1000000E+00  0.7456582E+02  0.2031282E+01  0.9641730E-01  0.1567129E+01  0.9115567E+04 -0.4790863E-05  0.6506357E+00 -0.1568271E+01  0.5052712E+03  0.2053032E+01  0.3024733E+02 -0.3141586E+01
  0.1387755E+00  0.1327822E+03  0.1822869E+01  0.1857702E+00  0.1574278E+01  0.9103646E+04 -0.1043664E-04  0.1253605E+01 -0.1573005E+01  0.8929926E+03  0.1836135E+01  0.3023272E+02 -0.3141580E+01
  0.1775510E+00  0.2129351E+03  0.1726817E+01  0.3039939E+00  0.1573955E+01  0.9087883E+04 -0.1955182E-04  0.2051428E+01 -0.1569862E+01  0.1429034E+04  0.1735273E+01  0.3021345E+02 -0.3141574E+01
  0.2163265E+00  0.3137588E+03  0.1676324E+01  0.4501372E+00  0.1578116E+01  0.9068314E+04 -0.3318169E-04  0.3037624E+01 -0.1575194E+01  0.2104224E+04  0.1682098E+01  0.3018962E+02 -0.3141569E+01
  0.2551020E+00  0.4347056E+03  0.1646785E+01  0.6257616E+00  0.1569495E+01  0.9044990E+04 -0.5226843E-04  0.4222375E+01 -0.1569342E+01  0.2914640E+04  0.1650952E+01  0.3016131E+02 -0.3141565E+01
  0.2938775E+00  0.5755494E+03  0.1628048E+01  0.8277606E+00  0.1580661E+01  0.9017966E+04 -0.7764957E-04  0.5585001E+01 -0.1572710E+01  0.3858702E+04  0.1631199E+01  0.3012871E+02 -0.3141564E+01
  0.3326530E+00  0.7361022E+03  0.1615448E+01  0.1057214E+01  0.1576394E+01  0.8987314E+04 -0.1094112E-03  0.7133195E+01 -0.1571157E+01  0.4935156E+04  0.1617906E+01  0.3009199E+02 -0.3141566E+01
  0.3714286E+00  0.9161176E+03  0.1606563E+01  0.1314166E+01  0.1573064E+01  0.8953101E+04 -0.1473833E-03  0.8867944E+01 -0.1564696E+01  0.6142365E+04  0.1608527E+01  0.3005133E+02 -0.3141569E+01
  0.4102041E+00  0.1115436E+04  0.1600060E+01  0.1600926E+01  0.1574499E+01  0.8915433E+04 -0.1903748E-03  0.1080241E+02 -0.1567354E+01  0.7479334E+04  0.1601670E+01  0.3000698E+02 -0.3141573E+01
  0.4489796E+00  0.1334032E+04  0.1595151E+01  0.1913089E+01  0.1572396E+01  0.8874395E+04 -0.2361856E-03  0.1290768E+02 -0.1567286E+01  0.8945987E+04  0.1596495E+01  0.2995916E+02 -0.3141574E+01
  0.4877551E+00  0.1571539E+04  0.1591351E+01  0.2244545E+01  0.1574843E+01  0.8830089E+04 -0.2821175E-03  0.1514373E+02 -0.1566104E+01  0.1053989E+05  0.1592488E+01  0.2990811E+02 -0.3141572E+01
  0.5265306E+00  0.1827636E+04  0.1588348E+01  0.2602038E+01  0.1575645E+01  0.8782618E+04 -0.3237904E-03  0.1755334E+02 -0.1565647E+01  0.1225897E+05  0.1589319E+01  0.2985404E+02 -0.3141562E+01
  0.5653061E+00  0.2102457E+04  0.1585921E+01  0.2993124E+01  0.1577859E+01  0.8732106E+04 -0.3563141E-03  0.2019084E+02 -0.1564923E+01  0.1410431E+05  0.1586762E+01  0.2979723E+02 -0.3141538E+01
  0.6040816E+00  0.2395636E+04  0.1583926E+01  0.3391467E+01  0.1578370E+01  0.8678642E+04 -0.3740018E-03  0.2287746E+02 -0.1563232E+01  0.1607352E+05  0.1584662E+01  0.2973783E+02 -0.3141495E+01
  0.6428572E+00  0.2706652E+04  0.1582264E+01  0.3835453E+01  0.1578921E+01  0.8622329E+04 -0.3698787E-03  0.2587202E+02 -0.1563692E+01  0.1816316E+05  0.1582912E+01  0.2967608E+02 -0.3141429E+01
  0.6816327E+00  0.3036083E+04  0.1580853E+01  0.4268225E+01  0.1580391E+01  0.8563288E+04 -0.3365992E-03  0.2878732E+02 -0.1562033E+01  0.2037734E+05  0.1581429E+01  0.2961211E+02 -0.3141329E+01
  0.7204082E+00  0.3382646E+04  0.1579640E+01  0.4759860E+01  0.1580293E+01  0.8501624E+04 -0.2664536E-03  0.3210301E+02 -0.1561437E+01  0.2270753E+05  0.1580155E+01  0.2954607E+02 -0.3141194E+01
  0.7591837E+00  0.3747333E+04  0.1578582E+01  0.5224768E+01  0.1581947E+01  0.8437417E+04 -0.1512680E-03  0.3523197E+02 -0.1560125E+01  0.2516048E+05  0.1579045E+01  0.2947803E+02 -0.3141013E+01
  0.7979592E+00  0.4128816E+04  0.1577648E+01  0.5777011E+01  0.1582162E+01  0.8370789E+04  0.1781803E-04  0.3895510E+02 -0.1559492E+01  0.2772754E+05  0.1578069E+01  0.2940816E+02 -0.3140782E+01
  0.8367347E+00  0.4527542E+04  0.1576815E+01  0.6243929E+01  0.1583311E+01  0.8301805E+04  0.2493877E-03  0.4209870E+02 -0.1558500E+01  0.3041162E+05  0.1577199E+01  0.2933630E+02 -0.3140494E+01
  0.8755102E+00  0.4943262E+04  0.1576063E+01  0.6816857E+01  0.1584187E+01  0.8230606E+04  0.5517920E-03  0.4596146E+02 -0.1558157E+01  0.3321155E+05  0.1576416E+01  0.2926280E+02 -0.3140143E+01
  0.9142857E+00  0.5374918E+04  0.1575379E+01  0.7376570E+01  0.1584799E+01  0.8157233E+04  0.9323258E-03  0.4972443E+02 -0.1556431E+01  0.3611989E+05  0.1575706E+01  0.2918732E+02 -0.3139725E+01
  0.9530612E+00  0.5824292E+04  0.1574754E+01  0.7896763E+01  0.1585753E+01  0.8081804E+04  0.1401637E-02  0.5323324E+02 -0.1556343E+01  0.3914929E+05  0.1575059E+01  0.2910990E+02 -0.3139233E+01
  0.9918368E+00  0.6289236E+04  0.1574178E+01  0.8548232E+01  0.1586086E+01  0.8004441E+04  0.1963877E-02  0.5761982E+02 -0.1556086E+01  0.4228518E+05  0.1574464E+01  0.2903073E+02 -0.3138668E+01
  0.1030612E+01  0.6769792E+04  0.1573649E+01  0.9104324E+01  0.1586447E+01  0.7925179E+04  0.2628650E-02  0.6136002E+02 -0.1554796E+01  0.4552790E+05  0.1573923E+01  0.2894934E+02 -0.3138023E+01
  0.1069388E+01  0.7267827E+04  0.1573165E+01  0.9618334E+01  0.1587079E+01  0.7844153E+04  0.3403342E-02  0.6481082E+02 -0.1554881E+01  0.4889050E+05  0.1573427E+01  0.2886579E+02 -0.3137295E+01
  0.1108163E+01  0.7780620E+04  0.1572725E+01  0.1032640E+02  0.1587161E+01  0.7761501E+04  0.4291363E-02  0.6957993E+02 -0.1554597E+01  0.5235471E+05  0.1572980E+01  0.2878024E+02 -0.3136490E+01
  0.1146939E+01  0.8308512E+04  0.1572331E+01  0.1095368E+02  0.1587355E+01  0.7677260E+04  0.5299713E-02  0.7380885E+02 -0.1554400E+01  0.5592258E+05  0.1572579E+01  0.2869208E+02 -0.3135602E+01
  0.1185714E+01  0.8853967E+04  0.1571985E+01  0.1142546E+02  0.1587050E+01  0.7591511E+04  0.6435564E-02  0.7696127E+02 -0.1554581E+01  0.5961131E+05  0.1572231E+01  0.2860107E+02 -0.3134629E+01
  0.1224490E+01  0.9413169E+04  0.1571687E+01  0.1207991E+02  0.1586553E+01  0.7504558E+04  0.7700691E-02  0.8136416E+02 -0.1555417E+01  0.6339534E+05  0.1571932E+01  0.2850795E+02 -0.3133577E+01
  0.1263265E+01  0.9987568E+04  0.1571447E+01  0.1285833E+02  0.1585985E+01  0.7416339E+04  0.9096162E-02  0.8660465E+02 -0.1555362E+01  0.6728455E+05  0.1571693E+01  0.2841162E+02 -0.3132450E+01
  0.1302041E+01  0.1057724E+05  0.1571270E+01  0.1331295E+02  0.1587131E+01  0.7326943E+04  0.1063150E-01  0.8964246E+02 -0.1554577E+01  0.7127887E+05  0.1571519E+01  0.2831185E+02 -0.3131243E+01
  0.1340816E+01  0.1118363E+05  0.1571154E+01  0.1379315E+02  0.1584972E+01  0.7236609E+04  0.1230578E-01  0.9286669E+02 -0.1556904E+01  0.7538917E+05  0.1571408E+01  0.2820865E+02 -0.3129962E+01
  0.1379592E+01  0.1180204E+05  0.1571106E+01  0.1454895E+02  0.1583093E+01  0.7145582E+04  0.1411775E-01  0.9793810E+02 -0.1558926E+01  0.7958368E+05  0.1571364E+01  0.2810248E+02 -0.3128617E+01
  0.1418367E+01  0.1243520E+05  0.1571133E+01  0.1538656E+02  0.1581682E+01  0.7053809E+04  0.1606570E-01  0.1035655E+03 -0.1560019E+01  0.8388044E+05  0.1571398E+01  0.2799202E+02 -0.3127211E+01
  0.1457143E+01  0.1308287E+05  0.1571240E+01  0.1576814E+02  0.1582342E+01  0.6961380E+04  0.1815747E-01  0.1061131E+03 -0.1559577E+01  0.8827816E+05  0.1571514E+01  0.2787715E+02 -0.3125740E+01
  0.1495918E+01  0.1374696E+05  0.1571424E+01  0.1613762E+02  0.1579040E+01  0.6868488E+04  0.2038829E-01  0.1085751E+03 -0.1562896E+01  0.9279005E+05  0.1571706E+01  0.2775732E+02 -0.3124213E+01
  0.1534694E+01  0.1442032E+05  0.1571688E+01  0.1676548E+02  0.1576067E+01  0.6775709E+04  0.2275123E-01  0.1127858E+03 -0.1566178E+01  0.9736798E+05  0.1571976E+01  0.2763394E+02 -0.3122646E+01
  0.1573469E+01  0.1510758E+05  0.1572036E+01  0.1771441E+02  0.1573055E+01  0.6682651E+04  0.2523023E-01  0.1191588E+03 -0.1569190E+01  0.1020429E+06  0.1572334E+01  0.2750460E+02 -0.3121049E+01
  0.1612245E+01  0.1580724E+05  0.1572467E+01  0.1843201E+02  0.1573027E+01  0.6589788E+04  0.2785258E-01  0.1239660E+03 -0.1569195E+01  0.1068047E+06  0.1572772E+01  0.2737019E+02 -0.3119404E+01
  0.1651020E+01  0.1652167E+05  0.1572982E+01  0.1848969E+02  0.1570253E+01  0.6496727E+04  0.3058728E-01  0.1243198E+03 -0.1571759E+01  0.1116696E+06  0.1573296E+01  0.2722855E+02 -0.3117732E+01
  0.1689796E+01  0.1724743E+05  0.1573568E+01  0.1885594E+02  0.1566302E+01  0.6404408E+04  0.3343365E-01  0.1267591E+03 -0.1575982E+01  0.1166148E+06  0.1573889E+01  0.2708117E+02 -0.3116040E+01
  0.1728571E+01  0.1797924E+05  0.1574229E+01  0.1961924E+02  0.1560552E+01  0.6313019E+04  0.3636763E-01  0.1318866E+03 -0.1581541E+01  0.1216043E+06  0.1574556E+01  0.2692804E+02 -0.3114351E+01
  0.1767347E+01  0.1872252E+05  0.1574959E+01  0.2064949E+02  0.1557147E+01  0.6222108E+04  0.3936508E-01  0.1387953E+03 -0.1585088E+01  0.1266745E+06  0.1575289E+01  0.2676657E+02 -0.3112677E+01
  0.1806122E+01  0.1947550E+05  0.1575750E+01  0.2140003E+02  0.1555612E+01  0.6132402E+04  0.4247139E-01  0.1438264E+03 -0.1586477E+01  0.1318138E+06  0.1576085E+01  0.2659856E+02 -0.3110978E+01
  0.1844898E+01  0.2024009E+05  0.1576600E+01  0.2131358E+02  0.1556152E+01  0.6043135E+04  0.4562102E-01  0.1432123E+03 -0.1586308E+01  0.1370350E+06  0.1576937E+01  0.2642056E+02 -0.3109295E+01
  0.1883674E+01  0.2101438E+05  0.1577485E+01  0.2145612E+02  0.1546756E+01  0.5955133E+04  0.4880494E-01  0.1441210E+03 -0.1595610E+01  0.1423249E+06  0.1577821E+01  0.2623327E+02 -0.3107638E+01
  0.1922449E+01  0.2178695E+05  0.1578430E+01  0.2214976E+02  0.1541820E+01  0.5869677E+04  0.5199949E-01  0.1487752E+03 -0.1600677E+01  0.1476069E+06  0.1578763E+01  0.2603905E+02 -0.3106018E+01
  0.1961224E+01  0.2256650E+05  0.1579395E+01  0.2312481E+02  0.1532313E+01  0.5785491E+04  0.5514999E-01  0.1553165E+03 -0.1610010E+01  0.1529396E+06  0.1579726E+01  0.2583334E+02 -0.3104463E+01
  0.2000000E+01  0.2335035E+05  0.1580378E+01  0.2415200E+02  0.1530195E+01  0.5703368E+04  0.5827291E-01  0.1622084E+03 -0.1612342E+01  0.1583042E+06  0.1580701E+01  0.2561756E+02 -0.3102947E+01
