VARIABLES="Frequency (rad/s)" "|Fx| (N/m)" "|Fy| (N/m)" "|Fz| (N/m)" "|Cx| (N)" "|Cy| (N)" "|Cz| (N)" "ang(Fx) (°)" "ang(Fy) (°)" "ang(Fz) (°)" "ang(Cx) (°)" "ang(Cy) (°)" "ang(Cz) (°)"
Zone t="Corps  1"
Zone t="Excitation force - beta =   0.000 deg",I=    50,F=POINT
 0.1000  0.745658E+02  0.964173E-01  0.911557E+04  0.650636E+00  0.505271E+03  0.302473E+02  116.38   89.79   -0.00  -89.86  117.63 -180.00
 0.1388  0.132782E+03  0.185770E+00  0.910365E+04  0.125361E+01  0.892993E+03  0.302327E+02  104.44   90.20   -0.00  -90.13  105.20 -180.00
 0.1776  0.212935E+03  0.303994E+00  0.908788E+04  0.205143E+01  0.142903E+04  0.302135E+02   98.94   90.18   -0.00  -89.95   99.42 -180.00
 0.2163  0.313759E+03  0.450137E+00  0.906831E+04  0.303762E+01  0.210422E+04  0.301896E+02   96.05   90.42   -0.00  -90.25   96.38 -180.00
 0.2551  0.434706E+03  0.625762E+00  0.904499E+04  0.422238E+01  0.291464E+04  0.301613E+02   94.35   89.93   -0.00  -89.92   94.59 -180.00
 0.2939  0.575549E+03  0.827761E+00  0.901797E+04  0.558500E+01  0.385870E+04  0.301287E+02   93.28   90.57   -0.00  -90.11   93.46 -180.00
 0.3327  0.736102E+03  0.105721E+01  0.898731E+04  0.713320E+01  0.493516E+04  0.300920E+02   92.56   90.32   -0.01  -90.02   92.70 -180.00
 0.3714  0.916118E+03  0.131417E+01  0.895310E+04  0.886794E+01  0.614236E+04  0.300513E+02   92.05   90.13   -0.01  -89.65   92.16 -180.00
 0.4102  0.111544E+04  0.160093E+01  0.891543E+04  0.108024E+02  0.747933E+04  0.300070E+02   91.68   90.21   -0.01  -89.80   91.77 -180.00
 0.4490  0.133403E+04  0.191309E+01  0.887439E+04  0.129077E+02  0.894599E+04  0.299592E+02   91.40   90.09   -0.01  -89.80   91.47 -180.00
 0.4878  0.157154E+04  0.224454E+01  0.883009E+04  0.151437E+02  0.105399E+05  0.299081E+02   91.18   90.23   -0.02  -89.73   91.24 -180.00
 0.5265  0.182764E+04  0.260204E+01  0.878262E+04  0.175533E+02  0.122590E+05  0.298540E+02   91.01   90.28   -0.02  -89.70   91.06 -180.00
 0.5653  0.210246E+04  0.299312E+01  0.873211E+04  0.201908E+02  0.141043E+05  0.297972E+02   90.87   90.40   -0.02  -89.66   90.91 -180.00
 0.6041  0.239564E+04  0.339147E+01  0.867864E+04  0.228775E+02  0.160735E+05  0.297378E+02   90.75   90.43   -0.02  -89.57   90.79 -179.99
 0.6429  0.270665E+04  0.383545E+01  0.862233E+04  0.258720E+02  0.181632E+05  0.296761E+02   90.66   90.47   -0.02  -89.59   90.69 -179.99
 0.6816  0.303608E+04  0.426822E+01  0.856329E+04  0.287873E+02  0.203773E+05  0.296121E+02   90.58   90.55   -0.02  -89.50   90.61 -179.98
 0.7204  0.338265E+04  0.475986E+01  0.850162E+04  0.321030E+02  0.227075E+05  0.295461E+02   90.51   90.54   -0.02  -89.46   90.54 -179.98
 0.7592  0.374733E+04  0.522477E+01  0.843742E+04  0.352320E+02  0.251605E+05  0.294780E+02   90.45   90.64   -0.01  -89.39   90.47 -179.97
 0.7980  0.412882E+04  0.577701E+01  0.837079E+04  0.389551E+02  0.277275E+05  0.294082E+02   90.39   90.65    0.00  -89.35   90.42 -179.95
 0.8367  0.452754E+04  0.624393E+01  0.830180E+04  0.420987E+02  0.304116E+05  0.293363E+02   90.34   90.72    0.01  -89.30   90.37 -179.94
 0.8755  0.494326E+04  0.681686E+01  0.823061E+04  0.459615E+02  0.332116E+05  0.292628E+02   90.30   90.77    0.03  -89.28   90.32 -179.92
 0.9143  0.537492E+04  0.737657E+01  0.815723E+04  0.497244E+02  0.361199E+05  0.291873E+02   90.26   90.80    0.05  -89.18   90.28 -179.89
 0.9531  0.582429E+04  0.789676E+01  0.808180E+04  0.532332E+02  0.391493E+05  0.291099E+02   90.23   90.86    0.08  -89.17   90.24 -179.86
 0.9918  0.628924E+04  0.854823E+01  0.800444E+04  0.576198E+02  0.422852E+05  0.290307E+02   90.19   90.88    0.11  -89.16   90.21 -179.83
 1.0306  0.676979E+04  0.910432E+01  0.792518E+04  0.613600E+02  0.455279E+05  0.289493E+02   90.16   90.90    0.15  -89.08   90.18 -179.80
 1.0694  0.726783E+04  0.961833E+01  0.784415E+04  0.648108E+02  0.488905E+05  0.288658E+02   90.14   90.93    0.19  -89.09   90.15 -179.75
 1.1082  0.778062E+04  0.103264E+02  0.776150E+04  0.695799E+02  0.523547E+05  0.287802E+02   90.11   90.94    0.25  -89.07   90.13 -179.71
 1.1469  0.830851E+04  0.109537E+02  0.767726E+04  0.738089E+02  0.559226E+05  0.286921E+02   90.09   90.95    0.30  -89.06   90.10 -179.66
 1.1857  0.885397E+04  0.114255E+02  0.759151E+04  0.769613E+02  0.596113E+05  0.286011E+02   90.07   90.93    0.37  -89.07   90.08 -179.60
 1.2245  0.941317E+04  0.120799E+02  0.750456E+04  0.813642E+02  0.633953E+05  0.285080E+02   90.05   90.90    0.44  -89.12   90.07 -179.54
 1.2633  0.998757E+04  0.128583E+02  0.741634E+04  0.866047E+02  0.672845E+05  0.284116E+02   90.04   90.87    0.52  -89.12   90.05 -179.48
 1.3020  0.105772E+05  0.133130E+02  0.732694E+04  0.896425E+02  0.712789E+05  0.283118E+02   90.03   90.94    0.61  -89.07   90.04 -179.41
 1.3408  0.111836E+05  0.137931E+02  0.723661E+04  0.928667E+02  0.753892E+05  0.282087E+02   90.02   90.81    0.71  -89.20   90.04 -179.33
 1.3796  0.118020E+05  0.145490E+02  0.714558E+04  0.979381E+02  0.795837E+05  0.281025E+02   90.02   90.70    0.81  -89.32   90.03 -179.26
 1.4184  0.124352E+05  0.153866E+02  0.705381E+04  0.103566E+03  0.838804E+05  0.279920E+02   90.02   90.62    0.92  -89.38   90.03 -179.18
 1.4571  0.130829E+05  0.157681E+02  0.696138E+04  0.106113E+03  0.882782E+05  0.278771E+02   90.03   90.66    1.04  -89.36   90.04 -179.09
 1.4959  0.137470E+05  0.161376E+02  0.686849E+04  0.108575E+03  0.927900E+05  0.277573E+02   90.04   90.47    1.17  -89.55   90.05 -179.00
 1.5347  0.144203E+05  0.167655E+02  0.677571E+04  0.112786E+03  0.973680E+05  0.276339E+02   90.05   90.30    1.30  -89.74   90.07 -178.91
 1.5735  0.151076E+05  0.177144E+02  0.668265E+04  0.119159E+03  0.102043E+06  0.275046E+02   90.07   90.13    1.45  -89.91   90.09 -178.82
 1.6122  0.158072E+05  0.184320E+02  0.658979E+04  0.123966E+03  0.106805E+06  0.273702E+02   90.10   90.13    1.60  -89.91   90.11 -178.73
 1.6510  0.165217E+05  0.184897E+02  0.649673E+04  0.124320E+03  0.111670E+06  0.272286E+02   90.13   89.97    1.75  -90.06   90.14 -178.63
 1.6898  0.172474E+05  0.188559E+02  0.640441E+04  0.126759E+03  0.116615E+06  0.270812E+02   90.16   89.74    1.92  -90.30   90.18 -178.54
 1.7286  0.179792E+05  0.196192E+02  0.631302E+04  0.131887E+03  0.121604E+06  0.269280E+02   90.20   89.41    2.08  -90.62   90.22 -178.44
 1.7673  0.187225E+05  0.206495E+02  0.622211E+04  0.138795E+03  0.126675E+06  0.267666E+02   90.24   89.22    2.26  -90.82   90.26 -178.34
 1.8061  0.194755E+05  0.214000E+02  0.613240E+04  0.143826E+03  0.131814E+06  0.265986E+02   90.28   89.13    2.43  -90.90   90.30 -178.25
 1.8449  0.202401E+05  0.213136E+02  0.604314E+04  0.143212E+03  0.137035E+06  0.264206E+02   90.33   89.16    2.61  -90.89   90.35 -178.15
 1.8837  0.210144E+05  0.214561E+02  0.595513E+04  0.144121E+03  0.142325E+06  0.262333E+02   90.38   88.62    2.80  -91.42   90.40 -178.05
 1.9224  0.217869E+05  0.221498E+02  0.586968E+04  0.148775E+03  0.147607E+06  0.260391E+02   90.44   88.34    2.98  -91.71   90.46 -177.96
 1.9612  0.225665E+05  0.231248E+02  0.578549E+04  0.155316E+03  0.152940E+06  0.258333E+02   90.49   87.80    3.16  -92.25   90.51 -177.87
 2.0000  0.233503E+05  0.241520E+02  0.570337E+04  0.162208E+03  0.158304E+06  0.256176E+02   90.55   87.67    3.34  -92.38   90.57 -177.79
