VARIABLES="w (rad/s)"
"abs(F   1   1)" "angle(F   1   1)"
"abs(F   1   2)" "angle(F   1   2)"
"abs(F   1   3)" "angle(F   1   3)"
"abs(F   1   4)" "angle(F   1   4)"
"abs(F   1   5)" "angle(F   1   5)"
"abs(F   1   6)" "angle(F   1   6)"
Zone t="FKforce - beta =   0.000",I=    50,F=POINT
  0.1000000E+00  0.1397637E+03  0.1810207E+01  0.1518498E-01 -0.1538635E+01  0.9117196E+04  0.8390201E-08  0.1072661E+00  0.1563968E+01  0.9469167E+03  0.1820903E+01  0.3024984E+02 -0.3141571E+01
  0.1387755E+00  0.2634286E+03  0.1696897E+01  0.2922133E-01 -0.1583329E+01  0.9106760E+04  0.1649120E-07  0.2065417E+00  0.1593257E+01  0.1781356E+04  0.1702688E+01  0.3023745E+02 -0.3141550E+01
  0.1775510E+00  0.4287321E+03  0.1648104E+01  0.4780984E-01 -0.1579733E+01  0.9092925E+04  0.2755009E-07  0.3378263E+00  0.1575855E+01  0.2897859E+04  0.1651684E+01  0.3022097E+02 -0.3141523E+01
  0.2163265E+00  0.6347949E+03  0.1622943E+01  0.7097112E-01 -0.1604343E+01  0.9075689E+04  0.4217488E-07  0.5015344E+00  0.1609749E+01  0.4290078E+04  0.1625364E+01  0.3020033E+02 -0.3141490E+01
  0.2551020E+00  0.8811627E+03  0.1608324E+01  0.9855569E-01 -0.1547880E+01  0.9055051E+04  0.6083688E-07  0.6963063E+00  0.1576056E+01  0.5954835E+04  0.1610065E+01  0.3017544E+02 -0.3141449E+01
  0.2938775E+00  0.1167466E+04  0.1599085E+01  0.1307660E+00 -0.1616087E+01  0.9031002E+04  0.8465165E-07  0.9235270E+00  0.1598822E+01  0.7889615E+04  0.1600401E+01  0.3014623E+02 -0.3141402E+01
  0.3326530E+00  0.1493332E+04  0.1592886E+01  0.1672007E+00 -0.1586494E+01  0.9003541E+04  0.1129031E-06  0.1181941E+01  0.1591867E+01  0.1009192E+05  0.1593913E+01  0.3011259E+02 -0.3141349E+01
  0.3714286E+00  0.1858364E+04  0.1588522E+01  0.2082018E+00 -0.1562002E+01  0.8972646E+04  0.1484562E-06  0.1470974E+01  0.1556190E+01  0.1255908E+05  0.1589343E+01  0.3007438E+02 -0.3141289E+01
  0.4102041E+00  0.2262117E+04  0.1585334E+01  0.2535819E+00 -0.1568149E+01  0.8938330E+04  0.1908505E-06  0.1791856E+01  0.1575020E+01  0.1528816E+05  0.1586008E+01  0.3003148E+02 -0.3141222E+01
  0.4489796E+00  0.2704108E+04  0.1582935E+01  0.3033346E+00 -0.1550674E+01  0.8900572E+04  0.2395350E-06  0.2143405E+01  0.1578542E+01  0.1827592E+05  0.1583499E+01  0.2998374E+02 -0.3141148E+01
  0.4877551E+00  0.3183799E+04  0.1581084E+01  0.3573332E+00 -0.1563110E+01  0.8859370E+04  0.3007221E-06  0.2525064E+01  0.1574374E+01  0.2151880E+05  0.1581562E+01  0.2993099E+02 -0.3141068E+01
  0.5265306E+00  0.3700606E+04  0.1579627E+01  0.4155462E+00 -0.1563452E+01  0.8814711E+04  0.3689253E-06  0.2936597E+01  0.1576200E+01  0.2501292E+05  0.1580036E+01  0.2987306E+02 -0.3140981E+01
  0.5653061E+00  0.4253893E+04  0.1578458E+01  0.4779434E+00 -0.1573606E+01  0.8766599E+04  0.4506418E-06  0.3377888E+01  0.1575350E+01  0.2875399E+05  0.1578813E+01  0.2980975E+02 -0.3140888E+01
  0.6040816E+00  0.4842966E+04  0.1577506E+01  0.5446959E+00 -0.1572701E+01  0.8715021E+04  0.5453658E-06  0.3847600E+01  0.1569147E+01  0.3273748E+05  0.1577817E+01  0.2974088E+02 -0.3140788E+01
  0.6428572E+00  0.5467087E+04  0.1576721E+01  0.6150723E+00 -0.1570499E+01  0.8659960E+04  0.6586550E-06  0.4345765E+01  0.1577313E+01  0.3695840E+05  0.1576995E+01  0.2966621E+02 -0.3140682E+01
  0.6816327E+00  0.6125452E+04  0.1576065E+01  0.6897597E+00 -0.1574690E+01  0.8601434E+04  0.7835735E-06  0.4873738E+01  0.1572149E+01  0.4141141E+05  0.1576309E+01  0.2958554E+02 -0.3140568E+01
  0.7204082E+00  0.6817192E+04  0.1575511E+01  0.7682233E+00 -0.1569605E+01  0.8539432E+04  0.9264742E-06  0.5429333E+01  0.1572910E+01  0.4609079E+05  0.1575729E+01  0.2949862E+02 -0.3140448E+01
  0.7591837E+00  0.7541423E+04  0.1575039E+01  0.8506404E+00 -0.1574169E+01  0.8473947E+04  0.1091840E-05  0.6009674E+01  0.1570593E+01  0.5099050E+05  0.1575235E+01  0.2940521E+02 -0.3140322E+01
  0.7979592E+00  0.8297144E+04  0.1574633E+01  0.9363714E+00 -0.1571904E+01  0.8404984E+04  0.1279180E-05  0.6617402E+01  0.1570354E+01  0.5610402E+05  0.1574811E+01  0.2930505E+02 -0.3140189E+01
  0.8367347E+00  0.9083333E+04  0.1574282E+01  0.1025777E+01 -0.1573771E+01  0.8332555E+04  0.1494166E-05  0.7249031E+01  0.1569382E+01  0.6142442E+05  0.1574443E+01  0.2919788E+02 -0.3140049E+01
  0.8755102E+00  0.9898900E+04  0.1573976E+01  0.1118787E+01 -0.1573906E+01  0.8256656E+04  0.1727849E-05  0.7905007E+01  0.1572279E+01  0.6694445E+05  0.1574123E+01  0.2908343E+02 -0.3139903E+01
  0.9142857E+00  0.1074269E+05  0.1573707E+01  0.1214734E+01 -0.1572103E+01  0.8177294E+04  0.2001338E-05  0.8584730E+01  0.1567611E+01  0.7265638E+05  0.1573841E+01  0.2896142E+02 -0.3139750E+01
  0.9530612E+00  0.1161348E+05  0.1573470E+01  0.1313955E+01 -0.1575209E+01  0.8094489E+04  0.2298241E-05  0.9285561E+01  0.1569482E+01  0.7855206E+05  0.1573593E+01  0.2883156E+02 -0.3139590E+01
  0.9918368E+00  0.1251002E+05  0.1573259E+01  0.1416477E+01 -0.1576010E+01  0.8008251E+04  0.2638152E-05  0.1000956E+02  0.1569211E+01  0.8462298E+05  0.1573372E+01  0.2869355E+02 -0.3139424E+01
  0.1030612E+01  0.1343093E+05  0.1573070E+01  0.1521958E+01 -0.1571298E+01  0.7918602E+04  0.3010596E-05  0.1075204E+02  0.1568503E+01  0.9086018E+05  0.1573175E+01  0.2854712E+02 -0.3139251E+01
  0.1069388E+01  0.1437482E+05  0.1572901E+01  0.1629086E+01 -0.1575723E+01  0.7825563E+04  0.3420855E-05  0.1151286E+02  0.1568146E+01  0.9725413E+05  0.1572998E+01  0.2839194E+02 -0.3139071E+01
  0.1108163E+01  0.1534022E+05  0.1572749E+01  0.1739729E+01 -0.1574761E+01  0.7729161E+04  0.3888681E-05  0.1229223E+02  0.1567877E+01  0.1037951E+06  0.1572839E+01  0.2822773E+02 -0.3138885E+01
  0.1146939E+01  0.1632560E+05  0.1572611E+01  0.1852216E+01 -0.1573120E+01  0.7629435E+04  0.4397415E-05  0.1308461E+02  0.1569061E+01  0.1104727E+06  0.1572694E+01  0.2805416E+02 -0.3138692E+01
  0.1185714E+01  0.1732936E+05  0.1572485E+01  0.1966371E+01 -0.1573745E+01  0.7526417E+04  0.4958046E-05  0.1389430E+02  0.1567563E+01  0.1172762E+06  0.1572563E+01  0.2787094E+02 -0.3138493E+01
  0.1224490E+01  0.1834982E+05  0.1572371E+01  0.2082432E+01 -0.1575119E+01  0.7420151E+04  0.5572005E-05  0.1471391E+02  0.1568291E+01  0.1241944E+06  0.1572443E+01  0.2767776E+02 -0.3138287E+01
  0.1263265E+01  0.1938527E+05  0.1572266E+01  0.2200349E+01 -0.1573598E+01  0.7310681E+04  0.6247681E-05  0.1554533E+02  0.1566195E+01  0.1312159E+06  0.1572333E+01  0.2747431E+02 -0.3138074E+01
  0.1302041E+01  0.2043392E+05  0.1572169E+01  0.2319354E+01 -0.1574757E+01  0.7198069E+04  0.6975283E-05  0.1638586E+02  0.1566937E+01  0.1383283E+06  0.1572232E+01  0.2726028E+02 -0.3137855E+01
  0.1340816E+01  0.2149391E+05  0.1572080E+01  0.2439332E+01 -0.1575876E+01  0.7082372E+04  0.7785598E-05  0.1723093E+02  0.1566588E+01  0.1455193E+06  0.1572139E+01  0.2703539E+02 -0.3137629E+01
  0.1379592E+01  0.2256331E+05  0.1571998E+01  0.2559346E+01 -0.1576043E+01  0.6963650E+04  0.8654303E-05  0.1808124E+02  0.1567110E+01  0.1527761E+06  0.1572052E+01  0.2679932E+02 -0.3137396E+01
  0.1418367E+01  0.2364017E+05  0.1571921E+01  0.2680489E+01 -0.1574997E+01  0.6841984E+04  0.9608269E-05  0.1893831E+02  0.1565588E+01  0.1600852E+06  0.1571972E+01  0.2655180E+02 -0.3137157E+01
  0.1457143E+01  0.2472241E+05  0.1571849E+01  0.2801258E+01 -0.1576734E+01  0.6717444E+04  0.1062424E-04  0.1978579E+02  0.1565601E+01  0.1674329E+06  0.1571897E+01  0.2629253E+02 -0.3136911E+01
  0.1495918E+01  0.2580799E+05  0.1571782E+01  0.2921520E+01 -0.1576103E+01  0.6590122E+04  0.1174286E-04  0.2064196E+02  0.1565971E+01  0.1748052E+06  0.1571827E+01  0.2602125E+02 -0.3136658E+01
  0.1534694E+01  0.2689470E+05  0.1571720E+01  0.3042026E+01 -0.1578682E+01  0.6460108E+04  0.1295492E-04  0.2149121E+02  0.1564957E+01  0.1821874E+06  0.1571761E+01  0.2573768E+02 -0.3136399E+01
  0.1573469E+01  0.2798040E+05  0.1571661E+01  0.3160895E+01 -0.1578008E+01  0.6327497E+04  0.1424830E-04  0.2232777E+02  0.1564979E+01  0.1895647E+06  0.1571700E+01  0.2544158E+02 -0.3136133E+01
  0.1612245E+01  0.2906278E+05  0.1571605E+01  0.3278219E+01 -0.1578495E+01  0.6192405E+04  0.1565598E-04  0.2315753E+02  0.1564766E+01  0.1969218E+06  0.1571641E+01  0.2513270E+02 -0.3135861E+01
  0.1651020E+01  0.3013958E+05  0.1571552E+01  0.3393066E+01 -0.1577479E+01  0.6054933E+04  0.1718145E-04  0.2397216E+02  0.1563728E+01  0.2042431E+06  0.1571586E+01  0.2481083E+02 -0.3135582E+01
  0.1689796E+01  0.3120843E+05  0.1571502E+01  0.3507128E+01 -0.1579202E+01  0.5915213E+04  0.1881565E-04  0.2477144E+02  0.1563345E+01  0.2115130E+06  0.1571534E+01  0.2447572E+02 -0.3135296E+01
  0.1728571E+01  0.3226692E+05  0.1571454E+01  0.3617729E+01 -0.1578194E+01  0.5773363E+04  0.2055268E-04  0.2554601E+02  0.1562682E+01  0.2187149E+06  0.1571484E+01  0.2412722E+02 -0.3135004E+01
  0.1767347E+01  0.3331268E+05  0.1571409E+01  0.3725973E+01 -0.1579560E+01  0.5629521E+04  0.2244205E-04  0.2631398E+02  0.1562131E+01  0.2258324E+06  0.1571436E+01  0.2376512E+02 -0.3134705E+01
  0.1806122E+01  0.3434321E+05  0.1571365E+01  0.3828817E+01 -0.1579421E+01  0.5483820E+04  0.2446853E-04  0.2703907E+02  0.1561740E+01  0.2328492E+06  0.1571391E+01  0.2338927E+02 -0.3134400E+01
  0.1844898E+01  0.3535607E+05  0.1571323E+01  0.3929314E+01 -0.1580660E+01  0.5336422E+04  0.2661141E-04  0.2773448E+02  0.1561492E+01  0.2397486E+06  0.1571347E+01  0.2299955E+02 -0.3134087E+01
  0.1883674E+01  0.3634872E+05  0.1571283E+01  0.4024088E+01 -0.1580595E+01  0.5187465E+04  0.2890034E-04  0.2841178E+02  0.1560940E+01  0.2465128E+06  0.1571305E+01  0.2259582E+02 -0.3133769E+01
  0.1922449E+01  0.3731864E+05  0.1571244E+01  0.4113731E+01 -0.1580789E+01  0.5037117E+04  0.3135465E-04  0.2904168E+02  0.1560994E+01  0.2531252E+06  0.1571264E+01  0.2217801E+02 -0.3133443E+01
  0.1961224E+01  0.3826329E+05  0.1571206E+01  0.4198832E+01 -0.1581800E+01  0.4885543E+04  0.3397201E-04  0.2963315E+02  0.1559385E+01  0.2595685E+06  0.1571225E+01  0.2174606E+02 -0.3133111E+01
  0.2000000E+01  0.3918019E+05  0.1571170E+01  0.4276223E+01 -0.1582615E+01  0.4732917E+04  0.3673917E-04  0.3018406E+02  0.1559141E+01  0.2658254E+06  0.1571186E+01  0.2129991E+02 -0.3132772E+01
