 VARIABLES="Time (s)"
"IRF    1"
"IRF    2"
"IRF    3"
"IRF    4"
"IRF    5"
"IRF    6"
Zone t="beta  0.0000000E+00",I=   199,F=POINT
 -0.9800000E+01  0.4998831E+03  0.5557501E+00 -0.1170897E+03 -0.3735656E+01  0.3383924E+04  0.2365057E+00
 -0.9700000E+01  0.6080933E+03  0.6580727E+00 -0.1453685E+03 -0.4422064E+01  0.4118335E+04  0.3638405E+00
 -0.9600000E+01  0.6945708E+03  0.7365674E+00 -0.1782112E+03 -0.4948293E+01  0.4705602E+04  0.5118038E+00
 -0.9500000E+01  0.7554311E+03  0.7876010E+00 -0.2144282E+03 -0.5289984E+01  0.5119353E+04  0.6750144E+00
 -0.9400001E+01  0.7877132E+03  0.8085454E+00 -0.2526711E+03 -0.5429529E+01  0.5339479E+04  0.8473673E+00
 -0.9300000E+01  0.7895256E+03  0.7979101E+00 -0.2914799E+03 -0.5356960E+01  0.5353108E+04  0.1022259E+01
 -0.9200000E+01  0.7601376E+03  0.7554206E+00 -0.3293394E+03 -0.5070487E+01  0.5155242E+04  0.1192834E+01
 -0.9100000E+01  0.7000361E+03  0.6820596E+00 -0.3647381E+03 -0.4576761E+01  0.4749118E+04  0.1352257E+01
 -0.9000000E+01  0.6109261E+03  0.5800510E+00 -0.3962312E+03 -0.3890761E+01  0.4146246E+04  0.1493984E+01
 -0.8900001E+01  0.4956982E+03  0.4528059E+00 -0.4224959E+03 -0.3035449E+01  0.3366170E+04  0.1612032E+01
 -0.8800000E+01  0.3583307E+03  0.3048060E+00 -0.4423889E+03 -0.2040958E+01  0.2435811E+04  0.1701220E+01
 -0.8700000E+01  0.2037704E+03  0.1414657E+00 -0.4549948E+03 -0.9436858E+00  0.1388657E+04  0.1757399E+01
 -0.8600000E+01  0.3775042E+02 -0.3107111E-01 -0.4596690E+03  0.2150817E+00  0.2635444E+03  0.1777639E+01
 -0.8500000E+01 -0.1334158E+03 -0.2061539E+00 -0.4560687E+03  0.1390664E+01 -0.8967595E+03  0.1760376E+01
 -0.8400001E+01 -0.3030604E+03 -0.3768663E+00 -0.4441739E+03  0.2536602E+01 -0.2047065E+04  0.1705500E+01
 -0.8300000E+01 -0.4644249E+03 -0.5363014E+00 -0.4242957E+03  0.3606528E+01 -0.3141560E+04  0.1614405E+01
 -0.8200000E+01 -0.6109122E+03 -0.6778258E+00 -0.3970732E+03  0.4555903E+01 -0.4135512E+04  0.1489958E+01
 -0.8100000E+01 -0.7363496E+03 -0.7953448E+00 -0.3634535E+03  0.5343828E+01 -0.4987062E+04  0.1336430E+01
 -0.8000000E+01 -0.8352449E+03 -0.8835598E+00 -0.3246637E+03  0.5934759E+01 -0.5658937E+04  0.1159353E+01
 -0.7900000E+01 -0.9030087E+03 -0.9381891E+00 -0.2821682E+03  0.6299990E+01 -0.6119983E+04  0.9653458E+00
 -0.7800000E+01 -0.9361593E+03 -0.9561648E+00 -0.2376175E+03  0.6418970E+01 -0.6346547E+04  0.7618656E+00
 -0.7700000E+01 -0.9324833E+03 -0.9357792E+00 -0.1927856E+03  0.6280301E+01 -0.6323557E+04  0.5569446E+00
 -0.7600000E+01 -0.8911498E+03 -0.8767861E+00 -0.1495047E+03  0.5882390E+01 -0.6045313E+04  0.3588798E+00
 -0.7500000E+01 -0.8127820E+03 -0.7804520E+00 -0.1095927E+03  0.5233810E+01 -0.5515963E+04  0.1759215E+00
 -0.7400000E+01 -0.6994637E+03 -0.6495404E+00 -0.7478184E+02  0.4353191E+01 -0.4749564E+04  0.1593350E-01
 -0.7300000E+01 -0.5546979E+03 -0.4882466E+00 -0.4664545E+02  0.3268775E+01 -0.3769785E+04 -0.1139130E+00
 -0.7200000E+01 -0.3833068E+03 -0.3020726E+00 -0.2653465E+02  0.2017560E+01 -0.2609241E+04 -0.2074536E+00
 -0.7100000E+01 -0.1912761E+03 -0.9764556E-01 -0.1551546E+02  0.6441081E+00 -0.1308456E+04 -0.2597941E+00
 -0.7000000E+01  0.1443764E+02  0.1175013E+00 -0.1432115E+02 -0.8009574E+00  0.8547195E+02 -0.2675419E+00
 -0.6900000E+01  0.2261604E+03  0.3352058E+00 -0.2331133E+02 -0.2262787E+01  0.1520562E+04 -0.2289824E+00
 -0.6800000E+01  0.4357719E+03  0.5469679E+00 -0.4245050E+02 -0.3684292E+01  0.2941791E+04 -0.1441898E+00
 -0.6700000E+01  0.6350056E+03  0.7442709E+00 -0.7129277E+02 -0.5008276E+01  0.4293137E+04 -0.1508347E-01
 -0.6600000E+01  0.8157651E+03  0.9189110E+00 -0.1089932E+03 -0.6179668E+01  0.5519708E+04  0.1545976E+00
 -0.6500000E+01  0.9704371E+03  0.1063320E+01 -0.1543245E+03 -0.7147673E+01  0.6569871E+04  0.3593884E+00
 -0.6400000E+01  0.1092198E+04  0.1170877E+01 -0.2057186E+03 -0.7867885E+01  0.7397330E+04  0.5922540E+00
 -0.6300000E+01  0.1175296E+04  0.1236192E+01 -0.2613122E+03 -0.8304156E+01  0.7963035E+04  0.8448249E+00
 -0.6200000E+01  0.1215305E+04  0.1255349E+01 -0.3190175E+03 -0.8430275E+01  0.8236902E+04  0.1107680E+01
 -0.6100000E+01  0.1209324E+04  0.1226098E+01 -0.3765923E+03 -0.8231218E+01  0.8199187E+04  0.1370679E+01
 -0.6000000E+01  0.1156138E+04  0.1148000E+01 -0.4317263E+03 -0.7704125E+01  0.7841551E+04  0.1623341E+01
 -0.5900000E+01  0.1056312E+04  0.1022492E+01 -0.4821289E+03 -0.6858745E+01  0.7167712E+04  0.1855238E+01
 -0.5800000E+01  0.9122213E+03  0.8528981E+00 -0.5256208E+03 -0.5717507E+01  0.6193667E+04  0.2056406E+01
 -0.5700000E+01  0.7280187E+03  0.6443624E+00 -0.5602227E+03 -0.4315049E+01  0.4947438E+04  0.2217753E+01
 -0.5600000E+01  0.5095263E+03  0.4037111E+00 -0.5842401E+03 -0.2697304E+01  0.3468390E+04  0.2331434E+01
 -0.5500000E+01  0.2640771E+03  0.1392559E+00 -0.5963415E+03 -0.9201899E+00  0.1806114E+04  0.2391206E+01
 -0.5400000E+01  0.2762092E+00 -0.1394739E+00 -0.5956207E+03  0.9522486E+00  0.1885193E+02  0.2392724E+01
 -0.5300000E+01 -0.2722753E+03 -0.4220491E+00 -0.5816496E+03  0.2849896E+01 -0.1828402E+04  0.2333778E+01
 -0.5200000E+01 -0.5433078E+03 -0.6974942E+00 -0.5545146E+03  0.4699021E+01 -0.3666089E+04  0.2214456E+01
 -0.5100000E+01 -0.8022466E+03 -0.9546840E+00 -0.5148287E+03  0.6424886E+01 -0.5422581E+04  0.2037227E+01
 -0.5000000E+01 -0.1038587E+04 -0.1182745E+01 -0.4637299E+03  0.7954470E+01 -0.7026687E+04  0.1806938E+01
 -0.4900000E+01 -0.1242292E+04 -0.1371472E+01 -0.4028581E+03  0.9219256E+01 -0.8410372E+04  0.1530707E+01
 -0.4800000E+01 -0.1404179E+04 -0.1511725E+01 -0.3343101E+03  0.1015793E+02 -0.9511341E+04  0.1217751E+01
 -0.4700000E+01 -0.1516271E+04 -0.1595806E+01 -0.2605765E+03  0.1071885E+02 -0.1027548E+05  0.8791138E+00
 -0.4600000E+01 -0.1572143E+04 -0.1617784E+01 -0.1844623E+03  0.1086227E+02 -0.1065916E+05  0.5273094E+00
 -0.4500000E+01 -0.1567199E+04 -0.1573783E+01 -0.1089906E+03  0.1056227E+02 -0.1063108E+05  0.1759165E+00
 -0.4400000E+01 -0.1498900E+04 -0.1462193E+01 -0.3729554E+02  0.9808166E+01 -0.1017394E+05 -0.1609081E+00
 -0.4300000E+01 -0.1366926E+04 -0.1283806E+01  0.2749531E+02  0.8605421E+01 -0.9285387E+04 -0.4689297E+00
 -0.4200000E+01 -0.1173263E+04 -0.1041887E+01  0.8238088E+02  0.6976089E+01 -0.7978719E+04 -0.7343764E+00
 -0.4100000E+01 -0.9222030E+03 -0.7421330E+00  0.1246074E+03  0.4958589E+01 -0.6282853E+04 -0.9444795E+00
 -0.4000000E+01 -0.6202794E+03 -0.3925738E+00  0.1517891E+03  0.2606998E+01 -0.4241871E+04 -0.1088001E+01
 -0.3900000E+01 -0.2760988E+03 -0.3365329E-02  0.1620161E+03 -0.1033043E-01 -0.1913944E+04 -0.1155718E+01
 -0.3800000E+01  0.9988152E+02  0.4134837E+00  0.1539521E+03 -0.2812620E+01  0.6302651E+03 -0.1140875E+01
 -0.3700000E+01  0.4956647E+03  0.8444629E+00  0.1269161E+03 -0.5709013E+01  0.3309594E+04 -0.1039547E+01
 -0.3600000E+01  0.8980764E+03  0.1274974E+01  0.8094471E+02 -0.8601356E+01  0.6034919E+04 -0.8509208E+00
 -0.3500000E+01  0.1293187E+04  0.1689795E+01  0.1682805E+02 -0.1138733E+02  0.8711959E+04 -0.5774962E+00
 -0.3400000E+01  0.1666757E+04  0.2073565E+01 -0.6386903E+02 -0.1396373E+02  0.1124432E+05 -0.2251547E+00
 -0.3300000E+01  0.2004722E+04  0.2411319E+01 -0.1588247E+03 -0.1623001E+02  0.1353678E+05  0.1968624E+00
 -0.3200000E+01  0.2293675E+04  0.2688987E+01 -0.2649958E+03 -0.1809167E+02  0.1549848E+05  0.6761109E+00
 -0.3100000E+01  0.2521332E+04  0.2893908E+01 -0.3786814E+03 -0.1946371E+02  0.1704622E+05  0.1197206E+01
 -0.3000000E+01  0.2676994E+04  0.3015284E+01 -0.4956116E+03 -0.2027365E+02  0.1810744E+05  0.1742183E+01
 -0.2900000E+01  0.2751936E+04  0.3044613E+01 -0.6110615E+03 -0.2046448E+02  0.1862296E+05  0.2290987E+01
 -0.2800000E+01  0.2739767E+04  0.2976026E+01 -0.7199794E+03 -0.1999690E+02  0.1854935E+05  0.2822029E+01
 -0.2700000E+01  0.2636703E+04  0.2806571E+01 -0.8171387E+03 -0.1885120E+02  0.1786086E+05  0.3312806E+01
 -0.2600000E+01  0.2441771E+04  0.2536392E+01 -0.8972933E+03 -0.1702851E+02  0.1655070E+05  0.3740607E+01
 -0.2500000E+01  0.2156912E+04  0.2168820E+01 -0.9553481E+03 -0.1455138E+02  0.1463184E+05  0.4083213E+01
 -0.2400000E+01  0.1787002E+04  0.1710359E+01 -0.9865214E+03 -0.1146367E+02  0.1213713E+05  0.4319634E+01
 -0.2300000E+01  0.1339772E+04  0.1170562E+01 -0.9865166E+03 -0.7829724E+01  0.9118680E+04  0.4430822E+01
 -0.2200000E+01  0.8256306E+03  0.5618243E+00 -0.9516706E+03 -0.3732991E+01  0.5646796E+04  0.4400342E+01
 -0.2100000E+01  0.2573948E+03 -0.1009457E+00 -0.8791014E+03  0.7261965E+00  0.1808070E+04  0.4214986E+01
 -0.2000000E+01 -0.3500553E+03 -0.8007196E+00 -0.7668235E+03  0.5433301E+01 -0.2296915E+04  0.3865321E+01
 -0.1900000E+01 -0.9801971E+03 -0.1518828E+01 -0.6138535E+03  0.1026276E+02 -0.6556469E+04  0.3346111E+01
 -0.1800000E+01 -0.1615361E+04 -0.2235501E+01 -0.4202744E+03  0.1508163E+02 -0.1085108E+05  0.2656638E+01
 -0.1700000E+01 -0.2237250E+04 -0.2930456E+01 -0.1872836E+03  0.1975357E+02 -0.1505700E+05  0.1800894E+01
 -0.1600000E+01 -0.2827503E+04 -0.3583506E+01  0.8280227E+02  0.2414284E+02 -0.1905000E+05  0.7876369E+00
 -0.1500000E+01 -0.3368261E+04 -0.4175167E+01  0.3865715E+03  0.2811854E+02 -0.2270924E+05 -0.3697099E+00
 -0.1400000E+01 -0.3842733E+04 -0.4687281E+01  0.7195706E+03  0.3155865E+02 -0.2592109E+05 -0.1653287E+01
 -0.1300000E+01 -0.4235729E+04 -0.5103577E+01  0.1076393E+04  0.3435385E+02 -0.2858271E+05 -0.3041147E+01
 -0.1200000E+01 -0.4534155E+04 -0.5410198E+01  0.1450805E+04  0.3641109E+02 -0.3060546E+05 -0.4507808E+01
 -0.1100000E+01 -0.4727445E+04 -0.5596148E+01  0.1835884E+04  0.3765657E+02 -0.3191778E+05 -0.6024794E+01
 -0.1000000E+01 -0.4807918E+04 -0.5653674E+01  0.2224185E+04  0.3803823E+02 -0.3246757E+05 -0.7561405E+01
 -0.9000000E+00 -0.4771056E+04 -0.5578526E+01  0.2607937E+04  0.3752768E+02 -0.3222419E+05 -0.9085479E+01
 -0.8000000E+00 -0.4615663E+04 -0.5370138E+01  0.2979232E+04  0.3612120E+02 -0.3117945E+05 -0.1056427E+02
 -0.7000000E+00 -0.4343956E+04 -0.5031676E+01  0.3330245E+04  0.3384021E+02 -0.2934822E+05 -0.1196526E+02
 -0.6000000E+00 -0.3961521E+04 -0.4569993E+01  0.3653425E+04  0.3073088E+02 -0.2676820E+05 -0.1325712E+02
 -0.5000000E+00 -0.3477178E+04 -0.3995443E+01  0.3941704E+04  0.2686294E+02 -0.2349894E+05 -0.1441052E+02
 -0.4000000E+00 -0.2902737E+04 -0.3321614E+01  0.4188701E+04  0.2232783E+02 -0.1962025E+05 -0.1539894E+02
 -0.3000000E+00 -0.2252666E+04 -0.2564944E+01  0.4388876E+04  0.1723614E+02 -0.1522992E+05 -0.1619944E+02
 -0.2000000E+00 -0.1543672E+04 -0.1744258E+01  0.4537700E+04  0.1171448E+02 -0.1044092E+05 -0.1679325E+02
 -0.1000000E+00 -0.7942142E+03 -0.8802207E+00  0.4631757E+04  0.5901845E+01 -0.5378008E+04 -0.1716636E+02
  0.0000000E+00 -0.2395158E+02  0.5259431E-02  0.4668875E+04 -0.5446391E-01 -0.1741499E+03 -0.1730987E+02
  0.1000000E+00  0.7468343E+03  0.8896670E+00  0.4648146E+04 -0.6003057E+01  0.5033510E+04 -0.1722027E+02
  0.2000000E+00  0.1497845E+04  0.1750537E+01  0.4569989E+04 -0.1179291E+02  0.1010770E+05 -0.1689951E+02
  0.3000000E+00  0.2209371E+04  0.2566109E+01  0.4436110E+04 -0.1727774E+02  0.1491512E+05 -0.1635497E+02
  0.4000000E+00  0.2862871E+04  0.3315958E+01  0.4249475E+04 -0.2232026E+02  0.1933037E+05 -0.1559927E+02
  0.5000000E+00  0.3441528E+04  0.3981586E+01  0.4014218E+04 -0.2679615E+02  0.2323973E+05 -0.1464989E+02
  0.6000000E+00  0.3930739E+04  0.4546944E+01  0.3735535E+04 -0.3059757E+02  0.2654440E+05 -0.1352867E+02
  0.7000000E+00  0.4318535E+04  0.4998894E+01  0.3419542E+04 -0.3363623E+02  0.2916346E+05 -0.1226124E+02
  0.8000000E+00  0.4595927E+04  0.5327560E+01  0.3073098E+04 -0.3584583E+02  0.3103611E+05 -0.1087628E+02
  0.9000000E+00  0.4757150E+04  0.5526596E+01  0.2703640E+04 -0.3718372E+02  0.3212338E+05 -0.9404748E+01
  0.1000000E+01  0.4799806E+04  0.5593327E+01  0.2318961E+04 -0.3763198E+02  0.3240906E+05 -0.7879008E+01
  0.1100000E+01  0.4724906E+04  0.5528796E+01  0.1927020E+04 -0.3719768E+02  0.3190001E+05 -0.6331969E+01
  0.1200000E+01  0.4536805E+04  0.5337676E+01  0.1535724E+04 -0.3591227E+02  0.3062571E+05 -0.4796191E+01
  0.1300000E+01  0.4243025E+04  0.5028087E+01  0.1152730E+04 -0.3383040E+02  0.2863709E+05 -0.3303034E+01
  0.1400000E+01  0.3854002E+04  0.4611317E+01  0.7852434E+03 -0.3102794E+02  0.2600475E+05 -0.1881840E+01
  0.1500000E+01  0.3382720E+04  0.4101418E+01  0.4398455E+03 -0.2759944E+02  0.2281655E+05 -0.5591927E+00
  0.1600000E+01  0.2844287E+04  0.3514761E+01  0.1223360E+03 -0.2365490E+02  0.1917472E+05  0.6417413E+00
  0.1700000E+01  0.2255447E+04  0.2869496E+01 -0.1624023E+03 -0.1931637E+02  0.1519254E+05  0.1701744E+01
  0.1800000E+01  0.1634042E+04  0.2184985E+01 -0.4105015E+03 -0.1471401E+02  0.1099068E+05  0.2605954E+01
  0.1900000E+01  0.9984477E+03  0.1481198E+01 -0.6191834E+03 -0.9982053E+01  0.6693512E+04  0.3344157E+01
  0.2000000E+01  0.3670098E+03  0.7780931E+00 -0.7867979E+03 -0.5254647E+01  0.2425084E+04  0.3910917E+01
  0.2100000E+01 -0.2425236E+03  0.9502637E-01 -0.9128268E+03 -0.6619126E+00 -0.1694538E+04  0.4305562E+01
  0.2200000E+01 -0.8135266E+03 -0.5498179E+00 -0.9978555E+03  0.3673972E+01 -0.5552912E+04  0.4532051E+01
  0.2300000E+01 -0.1330992E+04 -0.1139962E+01 -0.1043516E+04  0.7642248E+01 -0.9048568E+04  0.4598685E+01
  0.2400000E+01 -0.1781957E+04 -0.1661088E+01 -0.1052400E+04  0.1114667E+02 -0.1209387E+05  0.4517701E+01
  0.2500000E+01 -0.2155854E+04 -0.2101408E+01 -0.1027938E+04  0.1410804E+02 -0.1461739E+05  0.4304782E+01
  0.2600000E+01 -0.2444790E+04 -0.2451978E+01 -0.9742738E+03  0.1646624E+02 -0.1656581E+05  0.3978442E+01
  0.2700000E+01 -0.2643721E+04 -0.2706876E+01 -0.8961082E+03  0.1818148E+02 -0.1790511E+05  0.3559380E+01
  0.2800000E+01 -0.2750544E+04 -0.2863313E+01 -0.7985333E+03  0.1923503E+02 -0.1862115E+05  0.3069753E+01
  0.2900000E+01 -0.2766085E+04 -0.2921619E+01 -0.6868695E+03  0.1962908E+02 -0.1871963E+05  0.2532465E+01
  0.3000000E+01 -0.2693991E+04 -0.2885139E+01 -0.5664907E+03  0.1938611E+02 -0.1822535E+05  0.1970426E+01
  0.3100000E+01 -0.2540541E+04 -0.2760036E+01 -0.4426592E+03  0.1854754E+02 -0.1718087E+05  0.1405851E+01
  0.3200000E+01 -0.2314368E+04 -0.2555001E+01 -0.3203714E+03  0.1717178E+02 -0.1564472E+05  0.8596076E+00
  0.3300000E+01 -0.2026114E+04 -0.2280900E+01 -0.2042147E+03  0.1533180E+02 -0.1368902E+05  0.3506188E+00
  0.3400000E+01 -0.1688028E+04 -0.1950342E+01 -0.9824505E+02  0.1311237E+02 -0.1139672E+05 -0.1046468E+00
  0.3500000E+01 -0.1313517E+04 -0.1577228E+01 -0.5885032E+01  0.1060684E+02 -0.8858628E+04 -0.4925742E+00
  0.3600000E+01 -0.9166744E+03 -0.1176237E+01  0.7015295E+02  0.7913878E+01 -0.6170160E+04 -0.8027178E+00
  0.3700000E+01 -0.5117973E+03 -0.7623345E+00  0.1279162E+03  0.5133999E+01 -0.3428105E+04 -0.1027984E+01
  0.3800000E+01 -0.1129005E+03 -0.3502585E+00  0.1662395E+03  0.2366230E+01 -0.7273313E+03 -0.1164700E+01
  0.3900000E+01  0.2667344E+03  0.4595914E-01  0.1847397E+03 -0.2951548E+00  0.1842284E+04 -0.1212584E+01
  0.4000000E+01  0.6149804E+03  0.4134305E+00  0.1837881E+03 -0.2763571E+01  0.4198691E+04 -0.1174576E+01
  0.4100000E+01  0.9212409E+03  0.7408099E+00  0.1644579E+03 -0.4962798E+01  0.6270204E+04 -0.1056586E+01
  0.4200000E+01  0.1176756E+04  0.1018620E+01  0.1284523E+03 -0.6829156E+01  0.7997599E+04 -0.8671550E+00
  0.4300000E+01  0.1374837E+04  0.1239501E+01  0.7800893E+02 -0.8313222E+01  0.9335673E+04 -0.6170246E+00
  0.4400000E+01  0.1511038E+04  0.1398399E+01  0.1579712E+02 -0.9381012E+01  0.1025442E+05 -0.3186590E+00
  0.4500000E+01  0.1583227E+04  0.1492640E+01 -0.5520009E+02 -0.1001459E+02  0.1073949E+05  0.1427202E-01
  0.4600000E+01  0.1591590E+04  0.1521951E+01 -0.1318102E+03 -0.1021210E+02  0.1079227E+05  0.3674391E+00
  0.4700000E+01  0.1538549E+04  0.1488374E+01 -0.2107937E+03 -0.9987264E+01  0.1042925E+05  0.7264033E+00
  0.4800000E+01  0.1428605E+04  0.1396114E+01 -0.2889649E+03 -0.9368325E+01  0.9680987E+04  0.1077126E+01
  0.4900000E+01  0.1268112E+04  0.1251316E+01 -0.3633095E+03 -0.8396545E+01  0.8590619E+04  0.1406484E+01
  0.5000000E+01  0.1065003E+04  0.1061775E+01 -0.4310866E+03 -0.7124285E+01  0.7211920E+04  0.1702694E+01
  0.5100000E+01  0.8284454E+03  0.8366027E+00 -0.4899187E+03 -0.5612747E+01  0.5607062E+04  0.1955705E+01
  0.5200000E+01  0.5684897E+03  0.5858549E+00 -0.5378665E+03 -0.3929457E+01  0.3844141E+04  0.2157489E+01
  0.5300000E+01  0.2956813E+03  0.3201419E+00 -0.5734828E+03 -0.2145682E+01  0.1994624E+04  0.2302263E+01
  0.5400000E+01  0.2066195E+02  0.5021878E-01 -0.5958467E+03 -0.3336496E+00  0.1305991E+03  0.2386622E+01
  0.5500000E+01 -0.2462067E+03 -0.2134008E+00 -0.6045796E+03  0.1436040E+01 -0.1677752E+04  0.2409574E+01
  0.5600000E+01 -0.4952130E+03 -0.4608229E+00 -0.5998376E+03  0.3096936E+01 -0.3364655E+04  0.2372485E+01
  0.5700000E+01 -0.7176237E+03 -0.6831138E+00 -0.5822870E+03  0.4589054E+01 -0.4870988E+04  0.2278954E+01
  0.5800000E+01 -0.9059682E+03 -0.8725892E+00 -0.5530598E+03  0.5860796E+01 -0.6146176E+04  0.2134587E+01
  0.5900000E+01 -0.1054278E+04 -0.1023067E+01 -0.5136966E+03  0.6870655E+01 -0.7149838E+04  0.1946733E+01
  0.6000000E+01 -0.1158254E+04 -0.1130037E+01 -0.4660703E+03  0.7588357E+01 -0.7852922E+04  0.1724135E+01
  0.6100000E+01 -0.1215380E+04 -0.1190781E+01 -0.4123073E+03  0.7995647E+01 -0.8238417E+04  0.1476561E+01
  0.6200000E+01 -0.1224957E+04 -0.1204414E+01 -0.3546981E+03  0.8086606E+01 -0.8301665E+04  0.1214405E+01
  0.6300000E+01 -0.1188081E+04 -0.1171862E+01 -0.2956024E+03  0.7867476E+01 -0.8050151E+04  0.9482716E+00
  0.6400000E+01 -0.1107551E+04 -0.1095775E+01 -0.2373607E+03  0.7356049E+01 -0.7502893E+04  0.6885672E+00
  0.6500000E+01 -0.9877125E+03 -0.9803715E+00 -0.1822026E+03  0.6580674E+01 -0.6689395E+04  0.4451147E+00
  0.6600000E+01 -0.8342621E+03 -0.8312389E+00 -0.1321671E+03  0.5578885E+01 -0.5648295E+04  0.2268015E+00
  0.6700000E+01 -0.6539918E+03 -0.6550831E+00 -0.8903123E+02  0.4395719E+01 -0.4425657E+04  0.4126721E-01
  0.6800000E+01 -0.4545110E+03 -0.4594442E+00 -0.5424814E+02  0.3081823E+01 -0.3073062E+04 -0.1053445E+00
  0.6900000E+01 -0.2439378E+03 -0.2523873E+00 -0.2890399E+02  0.1691357E+01 -0.1645544E+04 -0.2085804E+00
  0.7000000E+01 -0.3058502E+02 -0.4218864E-01 -0.1368519E+02  0.2798960E+00 -0.1994376E+03 -0.2657892E+00
  0.7100000E+01  0.1773573E+03  0.1629883E+00 -0.8864851E+01 -0.1097738E+01  0.1209754E+04 -0.2761802E+00
  0.7200000E+01  0.3721245E+03  0.3553943E+00 -0.1430435E+02 -0.2389516E+01  0.2529430E+04 -0.2407930E+00
  0.7300000E+01  0.5466539E+03  0.5279762E+00 -0.2946986E+02 -0.3548083E+01  0.3711751E+04 -0.1624099E+00
  0.7400000E+01  0.6948401E+03  0.6746300E+00 -0.5346431E+02 -0.4532465E+01  0.4715359E+04 -0.4539602E-01
  0.7500000E+01  0.8117331E+03  0.7904052E+00 -0.8507303E+02 -0.5309425E+01  0.5506746E+04  0.1045059E+00
  0.7600000E+01  0.8936998E+03  0.8716635E+00 -0.1228174E+03 -0.5854554E+01  0.6061323E+04  0.2804381E+00
  0.7700000E+01  0.9385262E+03  0.9161834E+00 -0.1650197E+03 -0.6152950E+01  0.6364124E+04  0.4747162E+00
  0.7800000E+01  0.9454661E+03  0.9232079E+00 -0.2098744E+03 -0.6199555E+01  0.6410125E+04  0.6791498E+00
  0.7900000E+01  0.9152368E+03  0.8934425E+00 -0.2555193E+03 -0.5999121E+01  0.6204230E+04  0.8853706E+00
  0.8000000E+01  0.8499535E+03  0.8289870E+00 -0.3001097E+03 -0.5565763E+01  0.5760806E+04  0.1085156E+01
  0.8100000E+01  0.7530158E+03  0.7332220E+00 -0.3418906E+03 -0.4922207E+01  0.5102926E+04  0.1270747E+01
  0.8200000E+01  0.6289536E+03  0.6106531E+00 -0.3792583E+03 -0.4098717E+01  0.4261312E+04  0.1435127E+01
  0.8300000E+01  0.4832203E+03  0.4667052E+00 -0.4108245E+03 -0.3131739E+01  0.3272948E+04  0.1572285E+01
  0.8400001E+01  0.3219730E+03  0.3075016E+00 -0.4354597E+03 -0.2062400E+01  0.2179582E+04  0.1677416E+01
  0.8500000E+01  0.1518172E+03  0.1396071E+00 -0.4523324E+03 -0.9347921E+00  0.1025992E+04  0.1747076E+01
  0.8600000E+01 -0.2045695E+02 -0.3023552E-01 -0.4609348E+03  0.2058057E+00 -0.1418000E+03  0.1779284E+01
  0.8700000E+01 -0.1881291E+03 -0.1953578E+00 -0.4610938E+03  0.1314618E+01 -0.1278249E+04  0.1773568E+01
  0.8800000E+01 -0.3448147E+03 -0.3494344E+00 -0.4529703E+03  0.2349167E+01 -0.2340088E+04  0.1730943E+01
  0.8900001E+01 -0.4846929E+03 -0.4867066E+00 -0.4370443E+03  0.3270798E+01 -0.3287881E+04  0.1653837E+01
  0.9000000E+01 -0.6027167E+03 -0.6021935E+00 -0.4140907E+03  0.4046072E+01 -0.4087433E+04  0.1545966E+01
  0.9100000E+01 -0.6947989E+03 -0.6918759E+00 -0.3851400E+03  0.4648010E+01 -0.4711068E+04  0.1412158E+01
  0.9200000E+01 -0.7579359E+03 -0.7528160E+00 -0.3514337E+03  0.5056902E+01 -0.5138445E+04  0.1258148E+01
  0.9300000E+01 -0.7903080E+03 -0.7832587E+00 -0.3143716E+03  0.5260979E+01 -0.5357259E+04  0.1090322E+01
  0.9400001E+01 -0.7913197E+03 -0.7826665E+00 -0.2754532E+03  0.5256650E+01 -0.5363494E+04  0.9154691E+00
  0.9500000E+01 -0.7615996E+03 -0.7517195E+00 -0.2362185E+03  0.5048497E+01 -0.5161437E+04  0.7405054E+00
  0.9600000E+01 -0.7029490E+03 -0.6922602E+00 -0.1981845E+03  0.4648912E+01 -0.4763317E+04  0.5721915E+00
  0.9700000E+01 -0.6182524E+03 -0.6072031E+00 -0.1627887E+03  0.4077478E+01 -0.4188710E+04  0.4168857E+00
  0.9800000E+01 -0.5113379E+03 -0.5003912E+00 -0.1313343E+03  0.3360011E+01 -0.3463576E+04  0.2803010E+00
  0.9900001E+01 -0.3868182E+03 -0.3764393E+00 -0.1049425E+03  0.2527516E+01 -0.2619195E+04  0.1672985E+00
  0.1000000E+02 -0.2498955E+03 -0.2405346E+00 -0.8451164E+02  0.1614828E+01 -0.1690838E+04  0.8170989E-01
