 VARIABLES="X" "Y" "Z" "abs(p) (Pa)" "angle(p) (rad)"
ZONE N=    802,E =     800, F=FEPOINT, ET=QUADRILATERAL
   1.90499997       0.00000000      -0.00000000       2.73275971       1.87992907    
   1.90404105      -6.04420006E-02  -0.00000000       2.73275971       1.87992907    
   0.00000000       0.00000000       0.00000000       2.73275971       1.87992907    
   1.90404105       6.04420006E-02  -0.00000000       2.73275971       1.87992907    
   1.88967395      0.241159007      -0.00000000       2.74765444       1.87795639    
   1.89637399      0.181081995      -0.00000000       2.74765444       1.87795639    
   0.00000000       0.00000000       0.00000000       2.74765444       1.87795639    
   1.88107097      0.300992996      -0.00000000       2.74765444       1.87795639    
   0.00000000       0.00000000       0.00000000       2.73574543       1.87953234    
   1.89637399      0.181081995      -0.00000000       2.73574543       1.87953234    
   1.90116501      0.120823003      -0.00000000       2.73574543       1.87953234    
   1.90404105       6.04420006E-02  -0.00000000       2.73574543       1.87953234    
   1.87057400      0.360523999      -0.00000000       2.77242231       1.87474632    
   1.88107097      0.300992996      -0.00000000       2.77242231       1.87474632    
   0.00000000       0.00000000       0.00000000       2.77242231       1.87474632    
   1.85819399      0.419692010      -0.00000000       2.77242231       1.87474632    
   1.80988598      0.594424009      -0.00000000       2.87791014       1.86180282    
   1.82783401      0.536701024      -0.00000000       2.87791014       1.86180282    
   0.00000000       0.00000000       0.00000000       2.87791014       1.86180282    
   1.79011405      0.651548028      -0.00000000       2.87791014       1.86180282    
   0.00000000       0.00000000       0.00000000       2.81323075       1.86961114    
   1.82783401      0.536701024      -0.00000000       2.81323075       1.86961114    
   1.84394205      0.478437006      -0.00000000       2.81323075       1.86961114    
   1.85819399      0.419692010      -0.00000000       2.81323075       1.86961114    
   1.76854098      0.708016992      -0.00000000       2.97046828       1.85123706    
   1.79011405      0.651548028      -0.00000000       2.97046828       1.85123706    
   0.00000000       0.00000000       0.00000000       2.97046828       1.85123706    
   1.74518704      0.763773024      -0.00000000       2.97046828       1.85123706    
   1.66468298      0.926204979      -0.00000000       3.24836326       1.82304597    
   1.69323206      0.872922003      -0.00000000       3.24836326       1.82304597    
   0.00000000       0.00000000       0.00000000       3.24836326       1.82304597    
   1.63445795      0.978555024      -0.00000000       3.24836326       1.82304597    
   0.00000000       0.00000000       0.00000000       3.09394360       1.83810985    
   1.69323206      0.872922003      -0.00000000       3.09394360       1.83810985    
   1.72007501      0.818759024      -0.00000000       3.09394360       1.83810985    
   1.74518704      0.763773024      -0.00000000       3.09394360       1.83810985    
   1.60258806       1.02992105      -0.00000000       3.42906761       1.80704319    
   1.63445795      0.978555024      -0.00000000       3.42906761       1.80704319    
   0.00000000       0.00000000       0.00000000       3.42906761       1.80704319    
   1.56910396       1.08024895      -0.00000000       3.42906761       1.80704319    
   1.45931494       1.22450995      -0.00000000       3.78917050       1.77903163    
   1.49743104       1.17759299      -0.00000000       3.78917050       1.77903163    
   0.00000000       0.00000000       0.00000000       3.78917050       1.77903163    
   1.41972899       1.27019501      -0.00000000       3.78917050       1.77903163    
   0.00000000       0.00000000       0.00000000       3.61819339       1.79179978    
   1.49743104       1.17759299      -0.00000000       3.61819339       1.79179978    
   1.53403997       1.12949002      -0.00000000       3.61819339       1.79179978    
   1.56910396       1.08024895      -0.00000000       3.61819339       1.79179978    
   1.37871301       1.31459999      -0.00000000       3.86865568       1.77328110    
   1.41972899       1.27019501      -0.00000000       3.86865568       1.77328110    
   0.00000000       0.00000000       0.00000000       3.86865568       1.77328110    
   1.33631003       1.35768199      -0.00000000       3.86865568       1.77328110    
   1.20120299       1.47855902      -0.00000000       3.58107972       1.79426765    
   1.24750996       1.43970299      -0.00000000       3.58107972       1.79426765    
   0.00000000       0.00000000       0.00000000       3.58107972       1.79426765    
   1.15368605       1.51592600      -0.00000000       3.58107972       1.79426765    
   0.00000000       0.00000000       0.00000000       3.77110052       1.78006697    
   1.24750996       1.43970299      -0.00000000       3.77110052       1.78006697    
   1.29255998       1.39939702      -0.00000000       3.77110052       1.78006697    
   1.33631003       1.35768199      -0.00000000       3.77110052       1.78006697    
   1.10500801       1.55176699      -0.00000000       3.37865186       1.81088758    
   1.15368605       1.51592600      -0.00000000       3.37865186       1.81088758    
   0.00000000       0.00000000       0.00000000       3.37865186       1.81088758    
   1.05521798       1.58604598      -0.00000000       3.37865186       1.81088758    
  0.899676025       1.67916906      -0.00000000       3.03809142       1.84351337    
  0.952499986       1.64977801      -0.00000000       3.03809142       1.84351337    
   0.00000000       0.00000000       0.00000000       3.03809142       1.84351337    
  0.845947027       1.70686805      -0.00000000       3.03809142       1.84351337    
   0.00000000       0.00000000       0.00000000       3.19358635       1.82778454    
  0.952499986       1.64977801      -0.00000000       3.19358635       1.82778454    
   1.00436401       1.61872697      -0.00000000       3.19358635       1.82778454    
   1.05521798       1.58604598      -0.00000000       3.19358635       1.82778454    
  0.791365981       1.73284900      -0.00000000       2.91560388       1.85706580    
  0.845947027       1.70686805      -0.00000000       2.91560388       1.85706580    
   0.00000000       0.00000000       0.00000000       2.91560388       1.85706580    
  0.735987008       1.75708497      -0.00000000       2.91560388       1.85706580    
  0.565632999       1.81908906      -0.00000000       2.76216817       1.87579107    
  0.623063982       1.80022705      -0.00000000       2.76216817       1.87579107    
   0.00000000       0.00000000       0.00000000       2.76216817       1.87579107    
  0.507632971       1.83611906      -0.00000000       2.76216817       1.87579107    
   0.00000000       0.00000000       0.00000000       2.82521701       1.86783135    
  0.623063982       1.80022705      -0.00000000       2.82521701       1.86783135    
  0.679867983       1.77955198      -0.00000000       2.82521701       1.86783135    
  0.735987008       1.75708497      -0.00000000       2.82521701       1.86783135    
  0.449120998       1.85130095      -0.00000000       2.72056556       1.88126945    
  0.507632971       1.83611906      -0.00000000       2.72056556       1.88126945    
   0.00000000       0.00000000       0.00000000       2.72056556       1.88126945    
  0.390157014       1.86461902      -0.00000000       2.72056556       1.88126945    
  0.211146995       1.89326203      -0.00000000       2.68009353       1.88683546    
  0.271109998       1.88560998      -0.00000000       2.68009353       1.88683546    
   0.00000000       0.00000000       0.00000000       2.68009353       1.88683546    
  0.150970995       1.89900804      -0.00000000       2.68009353       1.88683546    
   0.00000000       0.00000000       0.00000000       2.69364715       1.88493478    
  0.271109998       1.88560998      -0.00000000       2.69364715       1.88493478    
  0.330799997       1.87605906      -0.00000000       2.69364715       1.88493478    
  0.390157014       1.86461902      -0.00000000       2.69364715       1.88493478    
   9.06440020E-02   1.90284204      -0.00000000       2.67483425       1.88759029    
  0.150970995       1.89900804      -0.00000000       2.67483425       1.88759029    
   0.00000000       0.00000000       0.00000000       2.67483425       1.88759029    
   3.02249994E-02   1.90476000      -0.00000000       2.67483425       1.88759029    
 -0.150970995       1.89900804      -0.00000000       2.68012571       1.88680995    
  -9.06440020E-02   1.90284204      -0.00000000       2.68012571       1.88680995    
   0.00000000       0.00000000       0.00000000       2.68012571       1.88680995    
 -0.211146995       1.89326203      -0.00000000       2.68012571       1.88680995    
   0.00000000       0.00000000       0.00000000       2.67462492       1.88761103    
  -9.06440020E-02   1.90284204      -0.00000000       2.67462492       1.88761103    
  -3.02249994E-02   1.90476000      -0.00000000       2.67462492       1.88761103    
   3.02249994E-02   1.90476000      -0.00000000       2.67462492       1.88761103    
 -0.271109998       1.88560998      -0.00000000       2.69679046       1.88449705    
 -0.211146995       1.89326203      -0.00000000       2.69679046       1.88449705    
   0.00000000       0.00000000       0.00000000       2.69679046       1.88449705    
 -0.330799997       1.87605906      -0.00000000       2.69679046       1.88449705    
 -0.507632971       1.83611906      -0.00000000       2.77186871       1.87457561    
 -0.449120998       1.85130095      -0.00000000       2.77186871       1.87457561    
   0.00000000       0.00000000       0.00000000       2.77186871       1.87457561    
 -0.565632999       1.81908906      -0.00000000       2.77186871       1.87457561    
   0.00000000       0.00000000       0.00000000       2.72633123       1.88050711    
 -0.449120998       1.85130095      -0.00000000       2.72633123       1.88050711    
 -0.390157014       1.86461902      -0.00000000       2.72633123       1.88050711    
 -0.330799997       1.87605906      -0.00000000       2.72633123       1.88050711    
 -0.623063982       1.80022705      -0.00000000       2.84132504       1.86594033    
 -0.565632999       1.81908906      -0.00000000       2.84132504       1.86594033    
   0.00000000       0.00000000       0.00000000       2.84132504       1.86594033    
 -0.679867983       1.77955198      -0.00000000       2.84132504       1.86594033    
 -0.845947027       1.70686805      -0.00000000       3.06623673       1.84075236    
 -0.791365981       1.73284900      -0.00000000       3.06623673       1.84075236    
   0.00000000       0.00000000       0.00000000       3.06623673       1.84075236    
 -0.899676025       1.67916906      -0.00000000       3.06623673       1.84075236    
   0.00000000       0.00000000       0.00000000       2.93829584       1.85460687    
 -0.791365981       1.73284900      -0.00000000       2.93829584       1.85460687    
 -0.735987008       1.75708497      -0.00000000       2.93829584       1.85460687    
 -0.679867983       1.77955198      -0.00000000       2.93829584       1.85460687    
 -0.952499986       1.64977801      -0.00000000       3.22421861       1.82511711    
 -0.899676025       1.67916906      -0.00000000       3.22421861       1.82511711    
   0.00000000       0.00000000       0.00000000       3.22421861       1.82511711    
  -1.00436401       1.61872697      -0.00000000       3.22421861       1.82511711    
  -1.15368605       1.51592600      -0.00000000       3.59817004       1.79318631    
  -1.10500801       1.55176699      -0.00000000       3.59817004       1.79318631    
   0.00000000       0.00000000       0.00000000       3.59817004       1.79318631    
  -1.20120299       1.47855902      -0.00000000       3.59817004       1.79318631    
   0.00000000       0.00000000       0.00000000       3.40731502       1.80871511    
  -1.10500801       1.55176699      -0.00000000       3.40731502       1.80871511    
  -1.05521798       1.58604598      -0.00000000       3.40731502       1.80871511    
  -1.00436401       1.61872697      -0.00000000       3.40731502       1.80871511    
  -1.24750996       1.43970299      -0.00000000       3.77063060       1.78020704    
  -1.20120299       1.47855902      -0.00000000       3.77063060       1.78020704    
   0.00000000       0.00000000       0.00000000       3.77063060       1.78020704    
  -1.29255998       1.39939702      -0.00000000       3.77063060       1.78020704    
  -1.41972899       1.27019501      -0.00000000       3.75427818       1.78114176    
  -1.37871301       1.31459999      -0.00000000       3.75427818       1.78114176    
   0.00000000       0.00000000       0.00000000       3.75427818       1.78114176    
  -1.45931494       1.22450995      -0.00000000       3.75427818       1.78114176    
   0.00000000       0.00000000       0.00000000       3.85094213       1.77436674    
  -1.37871301       1.31459999      -0.00000000       3.85094213       1.77436674    
  -1.33631003       1.35768199      -0.00000000       3.85094213       1.77436674    
  -1.29255998       1.39939702      -0.00000000       3.85094213       1.77436674    
  -1.49743104       1.17759299      -0.00000000       3.56605339       1.79530716    
  -1.45931494       1.22450995      -0.00000000       3.56605339       1.79530716    
   0.00000000       0.00000000       0.00000000       3.56605339       1.79530716    
  -1.53403997       1.12949002      -0.00000000       3.56605339       1.79530716    
  -1.63445795      0.978555024      -0.00000000       3.18188763       1.82874596    
  -1.60258806       1.02992105      -0.00000000       3.18188763       1.82874596    
   0.00000000       0.00000000       0.00000000       3.18188763       1.82874596    
  -1.66468298      0.926204979      -0.00000000       3.18188763       1.82874596    
   0.00000000       0.00000000       0.00000000       3.36552858       1.81187809    
  -1.60258806       1.02992105      -0.00000000       3.36552858       1.81187809    
  -1.56910396       1.08024895      -0.00000000       3.36552858       1.81187809    
  -1.53403997       1.12949002      -0.00000000       3.36552858       1.81187809    
  -1.69323206      0.872922003      -0.00000000       3.02751398       1.84444737    
  -1.66468298      0.926204979      -0.00000000       3.02751398       1.84444737    
   0.00000000       0.00000000       0.00000000       3.02751398       1.84444737    
  -1.72007501      0.818759024      -0.00000000       3.02751398       1.84444737    
  -1.79011405      0.651548028      -0.00000000       2.81643248       1.86868680    
  -1.76854098      0.708016992      -0.00000000       2.81643248       1.86868680    
   0.00000000       0.00000000       0.00000000       2.81643248       1.86868680    
  -1.80988598      0.594424009      -0.00000000       2.81643248       1.86868680    
   0.00000000       0.00000000       0.00000000       2.90599561       1.85796547    
  -1.76854098      0.708016992      -0.00000000       2.90599561       1.85796547    
  -1.74518704      0.763773024      -0.00000000       2.90599561       1.85796547    
  -1.72007501      0.818759024      -0.00000000       2.90599561       1.85796547    
  -1.82783401      0.536701024      -0.00000000       2.75420856       1.87658608    
  -1.80988598      0.594424009      -0.00000000       2.75420856       1.87658608    
   0.00000000       0.00000000       0.00000000       2.75420856       1.87658608    
  -1.84394205      0.478437006      -0.00000000       2.75420856       1.87658608    
  -1.88107097      0.300992996      -0.00000000       2.68693328       1.88560390    
  -1.87057400      0.360523999      -0.00000000       2.68693328       1.88560390    
   0.00000000       0.00000000       0.00000000       2.68693328       1.88560390    
  -1.88967395      0.241159007      -0.00000000       2.68693328       1.88560390    
   0.00000000       0.00000000       0.00000000       2.71329737       1.88199914    
  -1.87057400      0.360523999      -0.00000000       2.71329737       1.88199914    
  -1.85819399      0.419692010      -0.00000000       2.71329737       1.88199914    
  -1.84394205      0.478437006      -0.00000000       2.71329737       1.88199914    
  -1.89637399      0.181081995      -0.00000000       2.67382431       1.88746214    
  -1.88967395      0.241159007      -0.00000000       2.67382431       1.88746214    
   0.00000000       0.00000000       0.00000000       2.67382431       1.88746214    
  -1.90116501      0.120823003      -0.00000000       2.67382431       1.88746214    
  -1.90404105      -6.04420006E-02  -0.00000000       2.66893697       1.88817477    
  -1.90499997       0.00000000      -0.00000000       2.66893697       1.88817477    
   0.00000000       0.00000000       0.00000000       2.66893697       1.88817477    
  -1.90116501     -0.120823003      -0.00000000       2.66893697       1.88817477    
   0.00000000       0.00000000       0.00000000       2.66889048       1.88818145    
  -1.90499997       0.00000000      -0.00000000       2.66889048       1.88818145    
  -1.90404105       6.04420006E-02  -0.00000000       2.66889048       1.88818145    
  -1.90116501      0.120823003      -0.00000000       2.66889048       1.88818145    
  -1.89637399     -0.181081995      -0.00000000       2.67474055       1.88734341    
  -1.90116501     -0.120823003      -0.00000000       2.67474055       1.88734341    
   0.00000000       0.00000000       0.00000000       2.67474055       1.88734341    
  -1.88967395     -0.241159007      -0.00000000       2.67474055       1.88734341    
  -1.85819399     -0.419692010      -0.00000000       2.72183800       1.88093114    
  -1.87057400     -0.360523999      -0.00000000       2.72183800       1.88093114    
   0.00000000       0.00000000       0.00000000       2.72183800       1.88093114    
  -1.84394205     -0.478437006      -0.00000000       2.72183800       1.88093114    
   0.00000000       0.00000000       0.00000000       2.69177961       1.88498545    
  -1.87057400     -0.360523999      -0.00000000       2.69177961       1.88498545    
  -1.88107097     -0.300992996      -0.00000000       2.69177961       1.88498545    
  -1.88967395     -0.241159007      -0.00000000       2.69177961       1.88498545    
  -1.82783401     -0.536701024      -0.00000000       2.76796722       1.87492120    
  -1.84394205     -0.478437006      -0.00000000       2.76796722       1.87492120    
   0.00000000       0.00000000       0.00000000       2.76796722       1.87492120    
  -1.80988598     -0.594424009      -0.00000000       2.76796722       1.87492120    
  -1.74518704     -0.763773024      -0.00000000       2.93563366       1.85479975    
  -1.76854098     -0.708016992      -0.00000000       2.93563366       1.85479975    
   0.00000000       0.00000000       0.00000000       2.93563366       1.85479975    
  -1.72007501     -0.818759024      -0.00000000       2.93563366       1.85479975    
   0.00000000       0.00000000       0.00000000       2.83803940       1.86620879    
  -1.76854098     -0.708016992      -0.00000000       2.83803940       1.86620879    
  -1.79011405     -0.651548028      -0.00000000       2.83803940       1.86620879    
  -1.80988598     -0.594424009      -0.00000000       2.83803940       1.86620879    
  -1.69323206     -0.872922003      -0.00000000       3.06428170       1.84086859    
  -1.72007501     -0.818759024      -0.00000000       3.06428170       1.84086859    
   0.00000000       0.00000000       0.00000000       3.06428170       1.84086859    
  -1.66468298     -0.926204979      -0.00000000       3.06428170       1.84086859    
  -1.56910396      -1.08024895      -0.00000000       3.40709567       1.80869186    
  -1.60258806      -1.02992105      -0.00000000       3.40709567       1.80869186    
   0.00000000       0.00000000       0.00000000       3.40709567       1.80869186    
  -1.53403997      -1.12949002      -0.00000000       3.40709567       1.80869186    
   0.00000000       0.00000000       0.00000000       3.22305989       1.82516408    
  -1.60258806      -1.02992105      -0.00000000       3.22305989       1.82516408    
  -1.63445795     -0.978555024      -0.00000000       3.22305989       1.82516408    
  -1.66468298     -0.926204979      -0.00000000       3.22305989       1.82516408    
  -1.49743104      -1.17759299      -0.00000000       3.59896541       1.79310358    
  -1.53403997      -1.12949002      -0.00000000       3.59896541       1.79310358    
   0.00000000       0.00000000       0.00000000       3.59896541       1.79310358    
  -1.45931494      -1.22450995      -0.00000000       3.59896541       1.79310358    
  -1.33631003      -1.35768199      -0.00000000       3.85302830       1.77424514    
  -1.37871301      -1.31459999      -0.00000000       3.85302830       1.77424514    
   0.00000000       0.00000000       0.00000000       3.85302830       1.77424514    
  -1.29255998      -1.39939702      -0.00000000       3.85302830       1.77424514    
   0.00000000       0.00000000       0.00000000       3.77236605       1.78008604    
  -1.37871301      -1.31459999      -0.00000000       3.77236605       1.78008604    
  -1.41972899      -1.27019501      -0.00000000       3.77236605       1.78008604    
  -1.45931494      -1.22450995      -0.00000000       3.77236605       1.78008604    
  -1.24750996      -1.43970299      -0.00000000       3.75646138       1.78102207    
  -1.29255998      -1.39939702      -0.00000000       3.75646138       1.78102207    
   0.00000000       0.00000000       0.00000000       3.75646138       1.78102207    
  -1.20120299      -1.47855902      -0.00000000       3.75646138       1.78102207    
  -1.05521798      -1.58604598      -0.00000000       3.36850142       1.81167603    
  -1.10500801      -1.55176699      -0.00000000       3.36850142       1.81167603    
   0.00000000       0.00000000       0.00000000       3.36850142       1.81167603    
  -1.00436401      -1.61872697      -0.00000000       3.36850142       1.81167603    
   0.00000000       0.00000000       0.00000000       3.56861305       1.79515624    
  -1.10500801      -1.55176699      -0.00000000       3.56861305       1.79515624    
  -1.15368605      -1.51592600      -0.00000000       3.56861305       1.79515624    
  -1.20120299      -1.47855902      -0.00000000       3.56861305       1.79515624    
 -0.952499986      -1.64977801      -0.00000000       3.18517518       1.82849562    
  -1.00436401      -1.61872697      -0.00000000       3.18517518       1.82849562    
   0.00000000       0.00000000       0.00000000       3.18517518       1.82849562    
 -0.899676025      -1.67916906      -0.00000000       3.18517518       1.82849562    
 -0.735987008      -1.75708497      -0.00000000       2.90969300       1.85763001    
 -0.791365981      -1.73284900      -0.00000000       2.90969300       1.85763001    
   0.00000000       0.00000000       0.00000000       2.90969300       1.85763001    
 -0.679867983      -1.77955198      -0.00000000       2.90969300       1.85763001    
   0.00000000       0.00000000       0.00000000       3.03103685       1.84415245    
 -0.791365981      -1.73284900      -0.00000000       3.03103685       1.84415245    
 -0.845947027      -1.70686805      -0.00000000       3.03103685       1.84415245    
 -0.899676025      -1.67916906      -0.00000000       3.03103685       1.84415245    
 -0.623063982      -1.80022705      -0.00000000       2.82032561       1.86832094    
 -0.679867983      -1.77955198      -0.00000000       2.82032561       1.86832094    
   0.00000000       0.00000000       0.00000000       2.82032561       1.86832094    
 -0.565632999      -1.81908906      -0.00000000       2.82032561       1.86832094    
 -0.390157014      -1.86461902      -0.00000000       2.71759963       1.88156772    
 -0.449120998      -1.85130095      -0.00000000       2.71759963       1.88156772    
   0.00000000       0.00000000       0.00000000       2.71759963       1.88156772    
 -0.330799997      -1.87605906      -0.00000000       2.71759963       1.88156772    
   0.00000000       0.00000000       0.00000000       2.75834250       1.87617791    
 -0.449120998      -1.85130095      -0.00000000       2.75834250       1.87617791    
 -0.507632971      -1.83611906      -0.00000000       2.75834250       1.87617791    
 -0.565632999      -1.81908906      -0.00000000       2.75834250       1.87617791    
 -0.271109998      -1.88560998      -0.00000000       2.69129109       1.88516760    
 -0.330799997      -1.87605906      -0.00000000       2.69129109       1.88516760    
   0.00000000       0.00000000       0.00000000       2.69129109       1.88516760    
 -0.211146995      -1.89326203      -0.00000000       2.69129109       1.88516760    
  -3.02249994E-02  -1.90476000      -0.00000000       2.67307401       1.88777125    
  -9.06440020E-02  -1.90284204      -0.00000000       2.67307401       1.88777125    
   0.00000000       0.00000000       0.00000000       2.67307401       1.88777125    
   3.02249994E-02  -1.90476000      -0.00000000       2.67307401       1.88777125    
   0.00000000       0.00000000       0.00000000       2.67813802       1.88702965    
  -9.06440020E-02  -1.90284204      -0.00000000       2.67813802       1.88702965    
 -0.150970995      -1.89900804      -0.00000000       2.67813802       1.88702965    
 -0.211146995      -1.89326203      -0.00000000       2.67813802       1.88702965    
   9.06440020E-02  -1.90284204      -0.00000000       2.67298794       1.88779020    
   3.02249994E-02  -1.90476000      -0.00000000       2.67298794       1.88779020    
   0.00000000       0.00000000       0.00000000       2.67298794       1.88779020    
  0.150970995      -1.89900804      -0.00000000       2.67298794       1.88779020    
  0.330799997      -1.87605906      -0.00000000       2.69590020       1.88460433    
  0.271109998      -1.88560998      -0.00000000       2.69590020       1.88460433    
   0.00000000       0.00000000       0.00000000       2.69590020       1.88460433    
  0.390157014      -1.86461902      -0.00000000       2.69590020       1.88460433    
   0.00000000       0.00000000       0.00000000       2.67877340       1.88696921    
  0.271109998      -1.88560998      -0.00000000       2.67877340       1.88696921    
  0.211146995      -1.89326203      -0.00000000       2.67877340       1.88696921    
  0.150970995      -1.89900804      -0.00000000       2.67877340       1.88696921    
  0.449120998      -1.85130095      -0.00000000       2.72613883       1.88053346    
  0.390157014      -1.86461902      -0.00000000       2.72613883       1.88053346    
   0.00000000       0.00000000       0.00000000       2.72613883       1.88053346    
  0.507632971      -1.83611906      -0.00000000       2.72613883       1.88053346    
  0.679867983      -1.77955198      -0.00000000       2.84288526       1.86576724    
  0.623063982      -1.80022705      -0.00000000       2.84288526       1.86576724    
   0.00000000       0.00000000       0.00000000       2.84288526       1.86576724    
  0.735987008      -1.75708497      -0.00000000       2.84288526       1.86576724    
   0.00000000       0.00000000       0.00000000       2.77253175       1.87449932    
  0.623063982      -1.80022705      -0.00000000       2.77253175       1.87449932    
  0.565632999      -1.81908906      -0.00000000       2.77253175       1.87449932    
  0.507632971      -1.83611906      -0.00000000       2.77253175       1.87449932    
  0.791365981      -1.73284900      -0.00000000       2.94062281       1.85436070    
  0.735987008      -1.75708497      -0.00000000       2.94062281       1.85436070    
   0.00000000       0.00000000       0.00000000       2.94062281       1.85436070    
  0.845947027      -1.70686805      -0.00000000       2.94062281       1.85436070    
   1.00436401      -1.61872697      -0.00000000       3.22820663       1.82473445    
  0.952499986      -1.64977801      -0.00000000       3.22820663       1.82473445    
   0.00000000       0.00000000       0.00000000       3.22820663       1.82473445    
   1.05521798      -1.58604598      -0.00000000       3.22820663       1.82473445    
   0.00000000       0.00000000       0.00000000       3.06935596       1.84043443    
  0.952499986      -1.64977801      -0.00000000       3.06935596       1.84043443    
  0.899676025      -1.67916906      -0.00000000       3.06935596       1.84043443    
  0.845947027      -1.70686805      -0.00000000       3.06935596       1.84043443    
   1.10500801      -1.55176699      -0.00000000       3.41266823       1.80823886    
   1.05521798      -1.58604598      -0.00000000       3.41266823       1.80823886    
   0.00000000       0.00000000       0.00000000       3.41266823       1.80823886    
   1.15368605      -1.51592600      -0.00000000       3.41266823       1.80823886    
   1.29255998      -1.39939702      -0.00000000       3.77888441       1.77958322    
   1.24750996      -1.43970299      -0.00000000       3.77888441       1.77958322    
   0.00000000       0.00000000       0.00000000       3.77888441       1.77958322    
   1.33631003      -1.35768199      -0.00000000       3.77888441       1.77958322    
   0.00000000       0.00000000       0.00000000       3.60514927       1.79261601    
   1.24750996      -1.43970299      -0.00000000       3.60514927       1.79261601    
   1.20120299      -1.47855902      -0.00000000       3.60514927       1.79261601    