 VARIABLES="X" "Y" "Z" "abs(p) (Pa)" "angle(p) (rad)"
ZONE N=    802,E =     800, F=FEPOINT, ET=QUADRILATERAL
   1.90499997       0.00000000      -0.00000000       469.616028       1.59346163    
   1.90404105      -6.04420006E-02  -0.00000000       469.616028       1.59346163    
   0.00000000       0.00000000       0.00000000       469.616028       1.59346163    
   1.90404105       6.04420006E-02  -0.00000000       469.616028       1.59346163    
   1.88967395      0.241159007      -0.00000000       468.642914       1.59317195    
   1.89637399      0.181081995      -0.00000000       468.642914       1.59317195    
   0.00000000       0.00000000       0.00000000       468.642914       1.59317195    
   1.88107097      0.300992996      -0.00000000       468.642914       1.59317195    
   0.00000000       0.00000000       0.00000000       469.386780       1.59338808    
   1.89637399      0.181081995      -0.00000000       469.386780       1.59338808    
   1.90116501      0.120823003      -0.00000000       469.386780       1.59338808    
   1.90404105       6.04420006E-02  -0.00000000       469.386780       1.59338808    
   1.87057400      0.360523999      -0.00000000       467.720398       1.59277594    
   1.88107097      0.300992996      -0.00000000       467.720398       1.59277594    
   0.00000000       0.00000000       0.00000000       467.720398       1.59277594    
   1.85819399      0.419692010      -0.00000000       467.720398       1.59277594    
   1.80988598      0.594424009      -0.00000000       467.768646       1.59120631    
   1.82783401      0.536701024      -0.00000000       467.768646       1.59120631    
   0.00000000       0.00000000       0.00000000       467.768646       1.59120631    
   1.79011405      0.651548028      -0.00000000       467.768646       1.59120631    
   0.00000000       0.00000000       0.00000000       467.177948       1.59214473    
   1.82783401      0.536701024      -0.00000000       467.177948       1.59214473    
   1.84394205      0.478437006      -0.00000000       467.177948       1.59214473    
   1.85819399      0.419692010      -0.00000000       467.177948       1.59214473    
   1.76854098      0.708016992      -0.00000000       469.686310       1.58994365    
   1.79011405      0.651548028      -0.00000000       469.686310       1.58994365    
   0.00000000       0.00000000       0.00000000       469.686310       1.58994365    
   1.74518704      0.763773024      -0.00000000       469.686310       1.58994365    
   1.66468298      0.926204979      -0.00000000       479.239807       1.58632052    
   1.69323206      0.872922003      -0.00000000       479.239807       1.58632052    
   0.00000000       0.00000000       0.00000000       479.239807       1.58632052    
   1.63445795      0.978555024      -0.00000000       479.239807       1.58632052    
   0.00000000       0.00000000       0.00000000       473.497070       1.58830822    
   1.69323206      0.872922003      -0.00000000       473.497070       1.58830822    
   1.72007501      0.818759024      -0.00000000       473.497070       1.58830822    
   1.74518704      0.763773024      -0.00000000       473.497070       1.58830822    
   1.60258806       1.02992105      -0.00000000       486.487183       1.58403921    
   1.63445795      0.978555024      -0.00000000       486.487183       1.58403921    
   0.00000000       0.00000000       0.00000000       486.487183       1.58403921    
   1.56910396       1.08024895      -0.00000000       486.487183       1.58403921    
   1.45931494       1.22450995      -0.00000000       498.309052       1.57924116    
   1.49743104       1.17759299      -0.00000000       498.309052       1.57924116    
   0.00000000       0.00000000       0.00000000       498.309052       1.57924116    
   1.41972899       1.27019501      -0.00000000       498.309052       1.57924116    
   0.00000000       0.00000000       0.00000000       493.710052       1.58160937    
   1.49743104       1.17759299      -0.00000000       493.710052       1.58160937    
   1.53403997       1.12949002      -0.00000000       493.710052       1.58160937    
   1.56910396       1.08024895      -0.00000000       493.710052       1.58160937    
   1.37871301       1.31459999      -0.00000000       490.613007       1.57770920    
   1.41972899       1.27019501      -0.00000000       490.613007       1.57770920    
   0.00000000       0.00000000       0.00000000       490.613007       1.57770920    
   1.33631003       1.35768199      -0.00000000       490.613007       1.57770920    
   1.20120299       1.47855902      -0.00000000       414.029236       1.57948482    
   1.24750996       1.43970299      -0.00000000       414.029236       1.57948482    
   0.00000000       0.00000000       0.00000000       414.029236       1.57948482    
   1.15368605       1.51592600      -0.00000000       414.029236       1.57948482    
   0.00000000       0.00000000       0.00000000       458.572571       1.57804787    
   1.24750996       1.43970299      -0.00000000       458.572571       1.57804787    
   1.29255998       1.39939702      -0.00000000       458.572571       1.57804787    
   1.33631003       1.35768199      -0.00000000       458.572571       1.57804787    
   1.10500801       1.55176699      -0.00000000       367.575958       1.58126175    
   1.15368605       1.51592600      -0.00000000       367.575958       1.58126175    
   0.00000000       0.00000000       0.00000000       367.575958       1.58126175    
   1.05521798       1.58604598      -0.00000000       367.575958       1.58126175    
  0.899676025       1.67916906      -0.00000000       279.046661       1.58516097    
  0.952499986       1.64977801      -0.00000000       279.046661       1.58516097    
   0.00000000       0.00000000       0.00000000       279.046661       1.58516097    
  0.845947027       1.70686805      -0.00000000       279.046661       1.58516097    
   0.00000000       0.00000000       0.00000000       322.120697       1.58319271    
  0.952499986       1.64977801      -0.00000000       322.120697       1.58319271    
   1.00436401       1.61872697      -0.00000000       322.120697       1.58319271    
   1.05521798       1.58604598      -0.00000000       322.120697       1.58319271    
  0.791365981       1.73284900      -0.00000000       238.392502       1.58716941    
  0.845947027       1.70686805      -0.00000000       238.392502       1.58716941    
   0.00000000       0.00000000       0.00000000       238.392502       1.58716941    
  0.735987008       1.75708497      -0.00000000       238.392502       1.58716941    
  0.565632999       1.81908906      -0.00000000       163.450623       1.59159529    
  0.623063982       1.80022705      -0.00000000       163.450623       1.59159529    
   0.00000000       0.00000000       0.00000000       163.450623       1.59159529    
  0.507632971       1.83611906      -0.00000000       163.450623       1.59159529    
   0.00000000       0.00000000       0.00000000       200.027893       1.58925140    
  0.623063982       1.80022705      -0.00000000       200.027893       1.58925140    
  0.679867983       1.77955198      -0.00000000       200.027893       1.58925140    
  0.735987008       1.75708497      -0.00000000       200.027893       1.58925140    
  0.449120998       1.85130095      -0.00000000       128.185394       1.59457171    
  0.507632971       1.83611906      -0.00000000       128.185394       1.59457171    
   0.00000000       0.00000000       0.00000000       128.185394       1.59457171    
  0.390157014       1.86461902      -0.00000000       128.185394       1.59457171    
  0.211146995       1.89326203      -0.00000000       59.2850380       1.60875440    
  0.271109998       1.88560998      -0.00000000       59.2850380       1.60875440    
   0.00000000       0.00000000       0.00000000       59.2850380       1.60875440    
  0.150970995       1.89900804      -0.00000000       59.2850380       1.60875440    
   0.00000000       0.00000000       0.00000000       93.5219879       1.59924519    
  0.271109998       1.88560998      -0.00000000       93.5219879       1.59924519    
  0.330799997       1.87605906      -0.00000000       93.5219879       1.59924519    
  0.390157014       1.86461902      -0.00000000       93.5219879       1.59924519    
   9.06440020E-02   1.90284204      -0.00000000       25.4077568       1.64267540    
  0.150970995       1.89900804      -0.00000000       25.4077568       1.64267540    
   0.00000000       0.00000000       0.00000000       25.4077568       1.64267540    
   3.02249994E-02   1.90476000      -0.00000000       25.4077568       1.64267540    
 -0.150970995       1.89900804      -0.00000000       42.4087296      -1.59357870    
  -9.06440020E-02   1.90284204      -0.00000000       42.4087296      -1.59357870    
   0.00000000       0.00000000       0.00000000       42.4087296      -1.59357870    
 -0.211146995       1.89326203      -0.00000000       42.4087296      -1.59357870    
   0.00000000       0.00000000       0.00000000       8.55105877      -1.73439705    
  -9.06440020E-02   1.90284204      -0.00000000       8.55105877      -1.73439705    
  -3.02249994E-02   1.90476000      -0.00000000       8.55105877      -1.73439705    
   3.02249994E-02   1.90476000      -0.00000000       8.55105877      -1.73439705    
 -0.271109998       1.88560998      -0.00000000       76.6165771      -1.57796490    
 -0.211146995       1.89326203      -0.00000000       76.6165771      -1.57796490    
   0.00000000       0.00000000       0.00000000       76.6165771      -1.57796490    
 -0.330799997       1.87605906      -0.00000000       76.6165771      -1.57796490    
 -0.507632971       1.83611906      -0.00000000       146.508560      -1.56934857    
 -0.449120998       1.85130095      -0.00000000       146.508560      -1.56934857    
   0.00000000       0.00000000       0.00000000       146.508560      -1.56934857    
 -0.565632999       1.81908906      -0.00000000       146.508560      -1.56934857    
   0.00000000       0.00000000       0.00000000       111.167160      -1.57215428    
 -0.449120998       1.85130095      -0.00000000       111.167160      -1.57215428    
 -0.390157014       1.86461902      -0.00000000       111.167160      -1.57215428    
 -0.330799997       1.87605906      -0.00000000       111.167160      -1.57215428    
 -0.623063982       1.80022705      -0.00000000       183.341354      -1.56798470    
 -0.565632999       1.81908906      -0.00000000       183.341354      -1.56798470    
   0.00000000       0.00000000       0.00000000       183.341354      -1.56798470    
 -0.679867983       1.77955198      -0.00000000       183.341354      -1.56798470    
 -0.845947027       1.70686805      -0.00000000       262.407745      -1.56744933    
 -0.791365981       1.73284900      -0.00000000       262.407745      -1.56744933    
   0.00000000       0.00000000       0.00000000       262.407745      -1.56744933    
 -0.899676025       1.67916906      -0.00000000       262.407745      -1.56744933    
   0.00000000       0.00000000       0.00000000       221.807251      -1.56743228    
 -0.791365981       1.73284900      -0.00000000       221.807251      -1.56743228    
 -0.735987008       1.75708497      -0.00000000       221.807251      -1.56743228    
 -0.679867983       1.77955198      -0.00000000       221.807251      -1.56743228    
 -0.952499986       1.64977801      -0.00000000       305.140808      -1.56784177    
 -0.899676025       1.67916906      -0.00000000       305.140808      -1.56784177    
   0.00000000       0.00000000       0.00000000       305.140808      -1.56784177    
  -1.00436401       1.61872697      -0.00000000       305.140808      -1.56784177    
  -1.15368605       1.51592600      -0.00000000       394.431763      -1.56918347    
  -1.10500801       1.55176699      -0.00000000       394.431763      -1.56918347    
   0.00000000       0.00000000       0.00000000       394.431763      -1.56918347    
  -1.20120299       1.47855902      -0.00000000       394.431763      -1.56918347    
   0.00000000       0.00000000       0.00000000       349.653961      -1.56847763    
  -1.10500801       1.55176699      -0.00000000       349.653961      -1.56847763    
  -1.05521798       1.58604598      -0.00000000       349.653961      -1.56847763    
  -1.00436401       1.61872697      -0.00000000       349.653961      -1.56847763    
  -1.24750996       1.43970299      -0.00000000       436.919464      -1.56977224    
  -1.20120299       1.47855902      -0.00000000       436.919464      -1.56977224    
   0.00000000       0.00000000       0.00000000       436.919464      -1.56977224    
  -1.29255998       1.39939702      -0.00000000       436.919464      -1.56977224    
  -1.41972899       1.27019501      -0.00000000       474.768005      -1.56784391    
  -1.37871301       1.31459999      -0.00000000       474.768005      -1.56784391    
   0.00000000       0.00000000       0.00000000       474.768005      -1.56784391    
  -1.45931494       1.22450995      -0.00000000       474.768005      -1.56784391    
   0.00000000       0.00000000       0.00000000       467.603088      -1.56958497    
  -1.37871301       1.31459999      -0.00000000       467.603088      -1.56958497    
  -1.33631003       1.35768199      -0.00000000       467.603088      -1.56958497    
  -1.29255998       1.39939702      -0.00000000       467.603088      -1.56958497    
  -1.49743104       1.17759299      -0.00000000       469.797119      -1.56536508    
  -1.45931494       1.22450995      -0.00000000       469.797119      -1.56536508    
   0.00000000       0.00000000       0.00000000       469.797119      -1.56536508    
  -1.53403997       1.12949002      -0.00000000       469.797119      -1.56536508    
  -1.63445795      0.978555024      -0.00000000       456.226044      -1.56055593    
  -1.60258806       1.02992105      -0.00000000       456.226044      -1.56055593    
   0.00000000       0.00000000       0.00000000       456.226044      -1.56055593    
  -1.66468298      0.926204979      -0.00000000       456.226044      -1.56055593    
   0.00000000       0.00000000       0.00000000       462.714569      -1.56286776    
  -1.60258806       1.02992105      -0.00000000       462.714569      -1.56286776    
  -1.56910396       1.08024895      -0.00000000       462.714569      -1.56286776    
  -1.53403997       1.12949002      -0.00000000       462.714569      -1.56286776    
  -1.69323206      0.872922003      -0.00000000       451.761566      -1.55856943    
  -1.66468298      0.926204979      -0.00000000       451.761566      -1.55856943    
   0.00000000       0.00000000       0.00000000       451.761566      -1.55856943    
  -1.72007501      0.818759024      -0.00000000       451.761566      -1.55856943    
  -1.79011405      0.651548028      -0.00000000       448.511932      -1.55564964    
  -1.76854098      0.708016992      -0.00000000       448.511932      -1.55564964    
   0.00000000       0.00000000       0.00000000       448.511932      -1.55564964    
  -1.80988598      0.594424009      -0.00000000       448.511932      -1.55564964    
   0.00000000       0.00000000       0.00000000       449.231903      -1.55692923    
  -1.76854098      0.708016992      -0.00000000       449.231903      -1.55692923    
  -1.74518704      0.763773024      -0.00000000       449.231903      -1.55692923    
  -1.72007501      0.818759024      -0.00000000       449.231903      -1.55692923    
  -1.82783401      0.536701024      -0.00000000       449.133575      -1.55469322    
  -1.80988598      0.594424009      -0.00000000       449.133575      -1.55469322    
   0.00000000       0.00000000       0.00000000       449.133575      -1.55469322    
  -1.84394205      0.478437006      -0.00000000       449.133575      -1.55469322    
  -1.88107097      0.300992996      -0.00000000       452.112946      -1.55355453    
  -1.87057400      0.360523999      -0.00000000       452.112946      -1.55355453    
   0.00000000       0.00000000       0.00000000       452.112946      -1.55355453    
  -1.88967395      0.241159007      -0.00000000       452.112946      -1.55355453    
   0.00000000       0.00000000       0.00000000       450.542419      -1.55401373    
  -1.87057400      0.360523999      -0.00000000       450.542419      -1.55401373    
  -1.85819399      0.419692010      -0.00000000       450.542419      -1.55401373    
  -1.84394205      0.478437006      -0.00000000       450.542419      -1.55401373    
  -1.89637399      0.181081995      -0.00000000       453.426727      -1.55327225    
  -1.88967395      0.241159007      -0.00000000       453.426727      -1.55327225    
   0.00000000       0.00000000       0.00000000       453.426727      -1.55327225    
  -1.90116501      0.120823003      -0.00000000       453.426727      -1.55327225    
  -1.90404105      -6.04420006E-02  -0.00000000       454.294647      -1.55315220    
  -1.90499997       0.00000000      -0.00000000       454.294647      -1.55315220    
   0.00000000       0.00000000       0.00000000       454.294647      -1.55315220    
  -1.90116501     -0.120823003      -0.00000000       454.294647      -1.55315220    
   0.00000000       0.00000000       0.00000000       454.261353      -1.55314958    
  -1.90499997       0.00000000      -0.00000000       454.261353      -1.55314958    
  -1.90404105       6.04420006E-02  -0.00000000       454.261353      -1.55314958    
  -1.90116501      0.120823003      -0.00000000       454.261353      -1.55314958    
  -1.89637399     -0.181081995      -0.00000000       453.629517      -1.55328977    
  -1.90116501     -0.120823003      -0.00000000       453.629517      -1.55328977    
   0.00000000       0.00000000       0.00000000       453.629517      -1.55328977    
  -1.88967395     -0.241159007      -0.00000000       453.629517      -1.55328977    
  -1.85819399     -0.419692010      -0.00000000       451.431976      -1.55408669    
  -1.87057400     -0.360523999      -0.00000000       451.431976      -1.55408669    
   0.00000000       0.00000000       0.00000000       451.431976      -1.55408669    
  -1.84394205     -0.478437006      -0.00000000       451.431976      -1.55408669    
   0.00000000       0.00000000       0.00000000       452.584381      -1.55359328    
  -1.87057400     -0.360523999      -0.00000000       452.584381      -1.55359328    
  -1.88107097     -0.300992996      -0.00000000       452.584381      -1.55359328    
  -1.88967395     -0.241159007      -0.00000000       452.584381      -1.55359328    
  -1.82783401     -0.536701024      -0.00000000       450.577637      -1.55480683    
  -1.84394205     -0.478437006      -0.00000000       450.577637      -1.55480683    
   0.00000000       0.00000000       0.00000000       450.577637      -1.55480683    
  -1.80988598     -0.594424009      -0.00000000       450.577637      -1.55480683    
  -1.74518704     -0.763773024      -0.00000000       452.138947      -1.55713725    
  -1.76854098     -0.708016992      -0.00000000       452.138947      -1.55713725    
   0.00000000       0.00000000       0.00000000       452.138947      -1.55713725    
  -1.72007501     -0.818759024      -0.00000000       452.138947      -1.55713725    
   0.00000000       0.00000000       0.00000000       450.738586      -1.55581796    
  -1.76854098     -0.708016992      -0.00000000       450.738586      -1.55581796    
  -1.79011405     -0.651548028      -0.00000000       450.738586      -1.55581796    
  -1.80988598     -0.594424009      -0.00000000       450.738586      -1.55581796    
  -1.69323206     -0.872922003      -0.00000000       455.279755      -1.55880189    
  -1.72007501     -0.818759024      -0.00000000       455.279755      -1.55880189    
   0.00000000       0.00000000       0.00000000       455.279755      -1.55880189    
  -1.66468298     -0.926204979      -0.00000000       455.279755      -1.55880189    
  -1.56910396      -1.08024895      -0.00000000       466.613983      -1.56306326    
  -1.60258806      -1.02992105      -0.00000000       466.613983      -1.56306326    
   0.00000000       0.00000000       0.00000000       466.613983      -1.56306326    
  -1.53403997      -1.12949002      -0.00000000       466.613983      -1.56306326    
   0.00000000       0.00000000       0.00000000       460.270264      -1.56079602    
  -1.60258806      -1.02992105      -0.00000000       460.270264      -1.56079602    
  -1.63445795     -0.978555024      -0.00000000       460.270264      -1.56079602    
  -1.66468298     -0.926204979      -0.00000000       460.270264      -1.56079602    
  -1.49743104      -1.17759299      -0.00000000       472.826691      -1.56547856    
  -1.53403997      -1.12949002      -0.00000000       472.826691      -1.56547856    
   0.00000000       0.00000000       0.00000000       472.826691      -1.56547856    
  -1.45931494      -1.22450995      -0.00000000       472.826691      -1.56547856    
  -1.33631003      -1.35768199      -0.00000000       467.916809      -1.56955230    
  -1.37871301      -1.31459999      -0.00000000       467.916809      -1.56955230    
   0.00000000       0.00000000       0.00000000       467.916809      -1.56955230    
  -1.29255998      -1.39939702      -0.00000000       467.916809      -1.56955230    
   0.00000000       0.00000000       0.00000000       476.411163      -1.56786394    
  -1.37871301      -1.31459999      -0.00000000       476.411163      -1.56786394    
  -1.41972899      -1.27019501      -0.00000000       476.411163      -1.56786394    
  -1.45931494      -1.22450995      -0.00000000       476.411163      -1.56786394    
  -1.24750996      -1.43970299      -0.00000000       435.783020      -1.56970096    
  -1.29255998      -1.39939702      -0.00000000       435.783020      -1.56970096    
   0.00000000       0.00000000       0.00000000       435.783020      -1.56970096    
  -1.20120299      -1.47855902      -0.00000000       435.783020      -1.56970096    
  -1.05521798      -1.58604598      -0.00000000       345.654694      -1.56825054    
  -1.10500801      -1.55176699      -0.00000000       345.654694      -1.56825054    
   0.00000000       0.00000000       0.00000000       345.654694      -1.56825054    
  -1.00436401      -1.61872697      -0.00000000       345.654694      -1.56825054    
   0.00000000       0.00000000       0.00000000       391.632599      -1.56903672    
  -1.10500801      -1.55176699      -0.00000000       391.632599      -1.56903672    
  -1.15368605      -1.51592600      -0.00000000       391.632599      -1.56903672    
  -1.20120299      -1.47855902      -0.00000000       391.632599      -1.56903672    
 -0.952499986      -1.64977801      -0.00000000       300.661957      -1.56755495    
  -1.00436401      -1.61872697      -0.00000000       300.661957      -1.56755495    
   0.00000000       0.00000000       0.00000000       300.661957      -1.56755495    
 -0.899676025      -1.67916906      -0.00000000       300.661957      -1.56755495    
 -0.735987008      -1.75708497      -0.00000000       217.571289      -1.56708932    
 -0.791365981      -1.73284900      -0.00000000       217.571289      -1.56708932    
   0.00000000       0.00000000       0.00000000       217.571289      -1.56708932    
 -0.679867983      -1.77955198      -0.00000000       217.571289      -1.56708932    
   0.00000000       0.00000000       0.00000000       257.947174      -1.56712663    
 -0.791365981      -1.73284900      -0.00000000       257.947174      -1.56712663    
 -0.845947027      -1.70686805      -0.00000000       257.947174      -1.56712663    
 -0.899676025      -1.67916906      -0.00000000       257.947174      -1.56712663    
 -0.623063982      -1.80022705      -0.00000000       179.429276      -1.56763732    
 -0.679867983      -1.77955198      -0.00000000       179.429276      -1.56763732    
   0.00000000       0.00000000       0.00000000       179.429276      -1.56763732    
 -0.565632999      -1.81908906      -0.00000000       179.429276      -1.56763732    
 -0.390157014      -1.86461902      -0.00000000       107.944702      -1.57188380    
 -0.449120998      -1.85130095      -0.00000000       107.944702      -1.57188380    
   0.00000000       0.00000000       0.00000000       107.944702      -1.57188380    
 -0.330799997      -1.87605906      -0.00000000       107.944702      -1.57188380    
   0.00000000       0.00000000       0.00000000       143.044556      -1.56903148    
 -0.449120998      -1.85130095      -0.00000000       143.044556      -1.56903148    
 -0.507632971      -1.83611906      -0.00000000       143.044556      -1.56903148    
 -0.565632999      -1.81908906      -0.00000000       143.044556      -1.56903148    
 -0.271109998      -1.88560998      -0.00000000       73.4326553      -1.57784128    
 -0.330799997      -1.87605906      -0.00000000       73.4326553      -1.57784128    
   0.00000000       0.00000000       0.00000000       73.4326553      -1.57784128    
 -0.211146995      -1.89326203      -0.00000000       73.4326553      -1.57784128    
  -3.02249994E-02  -1.90476000      -0.00000000       5.62243176      -1.81626081    
  -9.06440020E-02  -1.90284204      -0.00000000       5.62243176      -1.81626081    
   0.00000000       0.00000000       0.00000000       5.62243176      -1.81626081    
   3.02249994E-02  -1.90476000      -0.00000000       5.62243176      -1.81626081    
   0.00000000       0.00000000       0.00000000       39.3124619      -1.59461868    
  -9.06440020E-02  -1.90284204      -0.00000000       39.3124619      -1.59461868    
 -0.150970995      -1.89900804      -0.00000000       39.3124619      -1.59461868    
 -0.211146995      -1.89326203      -0.00000000       39.3124619      -1.59461868    
   9.06440020E-02  -1.90284204      -0.00000000       28.3949013       1.63412738    
   3.02249994E-02  -1.90476000      -0.00000000       28.3949013       1.63412738    
   0.00000000       0.00000000       0.00000000       28.3949013       1.63412738    
  0.150970995      -1.89900804      -0.00000000       28.3949013       1.63412738    
  0.330799997      -1.87605906      -0.00000000       96.7748642       1.59793580    
  0.271109998      -1.88560998      -0.00000000       96.7748642       1.59793580    
   0.00000000       0.00000000       0.00000000       96.7748642       1.59793580    
  0.390157014      -1.86461902      -0.00000000       96.7748642       1.59793580    
   0.00000000       0.00000000       0.00000000       62.4220810       1.60635448    
  0.271109998      -1.88560998      -0.00000000       62.4220810       1.60635448    
  0.211146995      -1.89326203      -0.00000000       62.4220810       1.60635448    
  0.150970995      -1.89900804      -0.00000000       62.4220810       1.60635448    
  0.449120998      -1.85130095      -0.00000000       131.512604       1.59368527    
  0.390157014      -1.86461902      -0.00000000       131.512604       1.59368527    
   0.00000000       0.00000000       0.00000000       131.512604       1.59368527    
  0.507632971      -1.83611906      -0.00000000       131.512604       1.59368527    
  0.679867983      -1.77955198      -0.00000000       204.127502       1.58859849    
  0.623063982      -1.80022705      -0.00000000       204.127502       1.58859849    
   0.00000000       0.00000000       0.00000000       204.127502       1.58859849    
  0.735987008      -1.75708497      -0.00000000       204.127502       1.58859849    
   0.00000000       0.00000000       0.00000000       167.058090       1.59087610    
  0.623063982      -1.80022705      -0.00000000       167.058090       1.59087610    
  0.565632999      -1.81908906      -0.00000000       167.058090       1.59087610    
  0.507632971      -1.83611906      -0.00000000       167.058090       1.59087610    
  0.791365981      -1.73284900      -0.00000000       242.858643       1.58658755    
  0.735987008      -1.75708497      -0.00000000       242.858643       1.58658755    
   0.00000000       0.00000000       0.00000000       242.858643       1.58658755    
  0.845947027      -1.70686805      -0.00000000       242.858643       1.58658755    
   1.00436401      -1.61872697      -0.00000000       326.952271       1.58275211    
  0.952499986      -1.64977801      -0.00000000       326.952271       1.58275211    
   0.00000000       0.00000000       0.00000000       326.952271       1.58275211    
   1.05521798      -1.58604598      -0.00000000       326.952271       1.58275211    
   0.00000000       0.00000000       0.00000000       283.783539       1.58464742    
  0.952499986      -1.64977801      -0.00000000       283.783539       1.58464742    
  0.899676025      -1.67916906      -0.00000000       283.783539       1.58464742    
  0.845947027      -1.70686805      -0.00000000       283.783539       1.58464742    
   1.10500801      -1.55176699      -0.00000000       371.914062       1.58092308    
   1.05521798      -1.58604598      -0.00000000       371.914062       1.58092308    
   0.00000000       0.00000000       0.00000000       371.914062       1.58092308    
   1.15368605      -1.51592600      -0.00000000       371.914062       1.58092308    
   1.29255998      -1.39939702      -0.00000000       460.003693       1.57794023    
   1.24750996      -1.43970299      -0.00000000       460.003693       1.57794023    
   0.00000000       0.00000000       0.00000000       460.003693       1.57794023    
   1.33631003      -1.35768199      -0.00000000       460.003693       1.57794023    
   0.00000000       0.00000000       0.00000000       417.146912       1.57926822    
   1.24750996      -1.43970299      -0.00000000       417.146912       1.57926822    
   1.20120299      -1.47855902      -0.00000000       417.146912       1.57926822    