 VARIABLES="X" "Y" "Z" "abs(p) (Pa)" "angle(p) (rad)"
ZONE N=    802,E =     800, F=FEPOINT, ET=QUADRILATERAL
   1.90499997       0.00000000      -0.00000000       229.699783       1.57350445    
   1.90404105      -6.04420006E-02  -0.00000000       229.699783       1.57350445    
   0.00000000       0.00000000       0.00000000       229.699783       1.57350445    
   1.90404105       6.04420006E-02  -0.00000000       229.699783       1.57350445    
   1.88967395      0.241159007      -0.00000000       229.239639       1.57350183    
   1.89637399      0.181081995      -0.00000000       229.239639       1.57350183    
   0.00000000       0.00000000       0.00000000       229.239639       1.57350183    
   1.88107097      0.300992996      -0.00000000       229.239639       1.57350183    
   0.00000000       0.00000000       0.00000000       229.557083       1.57350409    
   1.89637399      0.181081995      -0.00000000       229.557083       1.57350409    
   1.90116501      0.120823003      -0.00000000       229.557083       1.57350409    
   1.90404105       6.04420006E-02  -0.00000000       229.557083       1.57350409    
   1.87057400      0.360523999      -0.00000000       228.906036       1.57349551    
   1.88107097      0.300992996      -0.00000000       228.906036       1.57349551    
   0.00000000       0.00000000       0.00000000       228.906036       1.57349551    
   1.85819399      0.419692010      -0.00000000       228.906036       1.57349551    
   1.80988598      0.594424009      -0.00000000       228.593811       1.57346463    
   1.82783401      0.536701024      -0.00000000       228.593811       1.57346463    
   0.00000000       0.00000000       0.00000000       228.593811       1.57346463    
   1.79011405      0.651548028      -0.00000000       228.593811       1.57346463    
   0.00000000       0.00000000       0.00000000       228.617920       1.57348418    
   1.82783401      0.536701024      -0.00000000       228.617920       1.57348418    
   1.84394205      0.478437006      -0.00000000       228.617920       1.57348418    
   1.85819399      0.419692010      -0.00000000       228.617920       1.57348418    
   1.76854098      0.708016992      -0.00000000       229.133347       1.57343304    
   1.79011405      0.651548028      -0.00000000       229.133347       1.57343304    
   0.00000000       0.00000000       0.00000000       229.133347       1.57343304    
   1.74518704      0.763773024      -0.00000000       229.133347       1.57343304    
   1.66468298      0.926204979      -0.00000000       232.054291       1.57333255    
   1.69323206      0.872922003      -0.00000000       232.054291       1.57333255    
   0.00000000       0.00000000       0.00000000       232.054291       1.57333255    
   1.63445795      0.978555024      -0.00000000       232.054291       1.57333255    
   0.00000000       0.00000000       0.00000000       230.280563       1.57338905    
   1.69323206      0.872922003      -0.00000000       230.280563       1.57338905    
   1.72007501      0.818759024      -0.00000000       230.280563       1.57338905    
   1.74518704      0.763773024      -0.00000000       230.280563       1.57338905    
   1.60258806       1.02992105      -0.00000000       234.174774       1.57326806    
   1.63445795      0.978555024      -0.00000000       234.174774       1.57326806    
   0.00000000       0.00000000       0.00000000       234.174774       1.57326806    
   1.56910396       1.08024895      -0.00000000       234.174774       1.57326806    
   1.45931494       1.22450995      -0.00000000       237.212555       1.57314336    
   1.49743104       1.17759299      -0.00000000       237.212555       1.57314336    
   0.00000000       0.00000000       0.00000000       237.212555       1.57314336    
   1.41972899       1.27019501      -0.00000000       237.212555       1.57314336    
   0.00000000       0.00000000       0.00000000       236.305923       1.57319987    
   1.49743104       1.17759299      -0.00000000       236.305923       1.57319987    
   1.53403997       1.12949002      -0.00000000       236.305923       1.57319987    
   1.56910396       1.08024895      -0.00000000       236.305923       1.57319987    
   1.37871301       1.31459999      -0.00000000       232.710144       1.57315123    
   1.41972899       1.27019501      -0.00000000       232.710144       1.57315123    
   0.00000000       0.00000000       0.00000000       232.710144       1.57315123    
   1.33631003       1.35768199      -0.00000000       232.710144       1.57315123    
   1.20120299       1.47855902      -0.00000000       196.766388       1.57356811    
   1.24750996       1.43970299      -0.00000000       196.766388       1.57356811    
   0.00000000       0.00000000       0.00000000       196.766388       1.57356811    
   1.15368605       1.51592600      -0.00000000       196.766388       1.57356811    
   0.00000000       0.00000000       0.00000000       217.459183       1.57330418    
   1.24750996       1.43970299      -0.00000000       217.459183       1.57330418    
   1.29255998       1.39939702      -0.00000000       217.459183       1.57330418    
   1.33631003       1.35768199      -0.00000000       217.459183       1.57330418    
   1.10500801       1.55176699      -0.00000000       175.325409       1.57390523    
   1.15368605       1.51592600      -0.00000000       175.325409       1.57390523    
   0.00000000       0.00000000       0.00000000       175.325409       1.57390523    
   1.05521798       1.58604598      -0.00000000       175.325409       1.57390523    
  0.899676025       1.67916906      -0.00000000       134.100403       1.57483339    
  0.952499986       1.64977801      -0.00000000       134.100403       1.57483339    
   0.00000000       0.00000000       0.00000000       134.100403       1.57483339    
  0.845947027       1.70686805      -0.00000000       134.100403       1.57483339    
   0.00000000       0.00000000       0.00000000       154.328094       1.57431972    
  0.952499986       1.64977801      -0.00000000       154.328094       1.57431972    
   1.00436401       1.61872697      -0.00000000       154.328094       1.57431972    
   1.05521798       1.58604598      -0.00000000       154.328094       1.57431972    
  0.791365981       1.73284900      -0.00000000       114.868233       1.57547915    
  0.845947027       1.70686805      -0.00000000       114.868233       1.57547915    
   0.00000000       0.00000000       0.00000000       114.868233       1.57547915    
  0.735987008       1.75708497      -0.00000000       114.868233       1.57547915    
  0.565632999       1.81908906      -0.00000000       78.9760361       1.57748592    
  0.623063982       1.80022705      -0.00000000       78.9760361       1.57748592    
   0.00000000       0.00000000       0.00000000       78.9760361       1.57748592    
  0.507632971       1.83611906      -0.00000000       78.9760361       1.57748592    
   0.00000000       0.00000000       0.00000000       96.5421982       1.57632244    
  0.623063982       1.80022705      -0.00000000       96.5421982       1.57632244    
  0.679867983       1.77955198      -0.00000000       96.5421982       1.57632244    
  0.735987008       1.75708497      -0.00000000       96.5421982       1.57632244    
  0.449120998       1.85130095      -0.00000000       61.9459229       1.57923317    
  0.507632971       1.83611906      -0.00000000       61.9459229       1.57923317    
   0.00000000       0.00000000       0.00000000       61.9459229       1.57923317    
  0.390157014       1.86461902      -0.00000000       61.9459229       1.57923317    
  0.211146995       1.89326203      -0.00000000       29.0291138       1.58836794    
  0.271109998       1.88560998      -0.00000000       29.0291138       1.58836794    
   0.00000000       0.00000000       0.00000000       29.0291138       1.58836794    
  0.150970995       1.89900804      -0.00000000       29.0291138       1.58836794    
   0.00000000       0.00000000       0.00000000       45.3427162       1.58218718    
  0.271109998       1.88560998      -0.00000000       45.3427162       1.58218718    
  0.330799997       1.87605906      -0.00000000       45.3427162       1.58218718    
  0.390157014       1.86461902      -0.00000000       45.3427162       1.58218718    
   9.06440020E-02   1.90284204      -0.00000000       12.8006697       1.61013579    
  0.150970995       1.89900804      -0.00000000       12.8006697       1.61013579    
   0.00000000       0.00000000       0.00000000       12.8006697       1.61013579    
   3.02249994E-02   1.90476000      -0.00000000       12.8006697       1.61013579    
 -0.150970995       1.89900804      -0.00000000       19.6098194      -1.59579492    
  -9.06440020E-02   1.90284204      -0.00000000       19.6098194      -1.59579492    
   0.00000000       0.00000000       0.00000000       19.6098194      -1.59579492    
 -0.211146995       1.89326203      -0.00000000       19.6098194      -1.59579492    
   0.00000000       0.00000000       0.00000000       3.45367575      -1.71514726    
  -9.06440020E-02   1.90284204      -0.00000000       3.45367575      -1.71514726    
  -3.02249994E-02   1.90476000      -0.00000000       3.45367575      -1.71514726    
   3.02249994E-02   1.90476000      -0.00000000       3.45367575      -1.71514726    
 -0.271109998       1.88560998      -0.00000000       35.9327011      -1.58425534    
 -0.211146995       1.89326203      -0.00000000       35.9327011      -1.58425534    
   0.00000000       0.00000000       0.00000000       35.9327011      -1.58425534    
 -0.330799997       1.87605906      -0.00000000       35.9327011      -1.58425534    
 -0.507632971       1.83611906      -0.00000000       69.6951675      -1.57756042    
 -0.449120998       1.85130095      -0.00000000       69.6951675      -1.57756042    
   0.00000000       0.00000000       0.00000000       69.6951675      -1.57756042    
 -0.565632999       1.81908906      -0.00000000       69.6951675      -1.57756042    
   0.00000000       0.00000000       0.00000000       52.6108322      -1.57986963    
 -0.449120998       1.85130095      -0.00000000       52.6108322      -1.57986963    
 -0.390157014       1.86461902      -0.00000000       52.6108322      -1.57986963    
 -0.330799997       1.87605906      -0.00000000       52.6108322      -1.57986963    
 -0.623063982       1.80022705      -0.00000000       87.3442688      -1.57613063    
 -0.565632999       1.81908906      -0.00000000       87.3442688      -1.57613063    
   0.00000000       0.00000000       0.00000000       87.3442688      -1.57613063    
 -0.679867983       1.77955198      -0.00000000       87.3442688      -1.57613063    
 -0.845947027       1.70686805      -0.00000000       124.989075      -1.57445323    
 -0.791365981       1.73284900      -0.00000000       124.989075      -1.57445323    
   0.00000000       0.00000000       0.00000000       124.989075      -1.57445323    
 -0.899676025       1.67916906      -0.00000000       124.989075      -1.57445323    
   0.00000000       0.00000000       0.00000000       105.772049      -1.57515585    
 -0.791365981       1.73284900      -0.00000000       105.772049      -1.57515585    
 -0.735987008       1.75708497      -0.00000000       105.772049      -1.57515585    
 -0.679867983       1.77955198      -0.00000000       105.772049      -1.57515585    
 -0.952499986       1.64977801      -0.00000000       145.037094      -1.57392585    
 -0.899676025       1.67916906      -0.00000000       145.037094      -1.57392585    
   0.00000000       0.00000000       0.00000000       145.037094      -1.57392585    
  -1.00436401       1.61872697      -0.00000000       145.037094      -1.57392585    
  -1.15368605       1.51592600      -0.00000000       186.423172      -1.57321024    
  -1.10500801       1.55176699      -0.00000000       186.423172      -1.57321024    
   0.00000000       0.00000000       0.00000000       186.423172      -1.57321024    
  -1.20120299       1.47855902      -0.00000000       186.423172      -1.57321024    
   0.00000000       0.00000000       0.00000000       165.635162      -1.57352257    
  -1.10500801       1.55176699      -0.00000000       165.635162      -1.57352257    
  -1.05521798       1.58604598      -0.00000000       165.635162      -1.57352257    
  -1.00436401       1.61872697      -0.00000000       165.635162      -1.57352257    
  -1.24750996       1.43970299      -0.00000000       206.168594      -1.57297194    
  -1.20120299       1.47855902      -0.00000000       206.168594      -1.57297194    
   0.00000000       0.00000000       0.00000000       206.168594      -1.57297194    
  -1.29255998       1.39939702      -0.00000000       206.168594      -1.57297194    
  -1.41972899       1.27019501      -0.00000000       224.986572      -1.57273591    
  -1.37871301       1.31459999      -0.00000000       224.986572      -1.57273591    
   0.00000000       0.00000000       0.00000000       224.986572      -1.57273591    
  -1.45931494       1.22450995      -0.00000000       224.986572      -1.57273591    
   0.00000000       0.00000000       0.00000000       220.772415      -1.57281220    
  -1.37871301       1.31459999      -0.00000000       220.772415      -1.57281220    
  -1.33631003       1.35768199      -0.00000000       220.772415      -1.57281220    
  -1.29255998       1.39939702      -0.00000000       220.772415      -1.57281220    
  -1.49743104       1.17759299      -0.00000000       223.867767      -1.57269740    
  -1.45931494       1.22450995      -0.00000000       223.867767      -1.57269740    
   0.00000000       0.00000000       0.00000000       223.867767      -1.57269740    
  -1.53403997       1.12949002      -0.00000000       223.867767      -1.57269740    
  -1.63445795      0.978555024      -0.00000000       220.117828      -1.57264006    
  -1.60258806       1.02992105      -0.00000000       220.117828      -1.57264006    
   0.00000000       0.00000000       0.00000000       220.117828      -1.57264006    
  -1.66468298      0.926204979      -0.00000000       220.117828      -1.57264006    
   0.00000000       0.00000000       0.00000000       221.870697      -1.57266772    
  -1.60258806       1.02992105      -0.00000000       221.870697      -1.57266772    
  -1.56910396       1.08024895      -0.00000000       221.870697      -1.57266772    
  -1.53403997       1.12949002      -0.00000000       221.870697      -1.57266772    
  -1.69323206      0.872922003      -0.00000000       218.890518      -1.57261312    
  -1.66468298      0.926204979      -0.00000000       218.890518      -1.57261312    
   0.00000000       0.00000000       0.00000000       218.890518      -1.57261312    
  -1.72007501      0.818759024      -0.00000000       218.890518      -1.57261312    
  -1.79011405      0.651548028      -0.00000000       218.539566      -1.57255852    
  -1.76854098      0.708016992      -0.00000000       218.539566      -1.57255852    
   0.00000000       0.00000000       0.00000000       218.539566      -1.57255852    
  -1.80988598      0.594424009      -0.00000000       218.539566      -1.57255852    
   0.00000000       0.00000000       0.00000000       218.377167      -1.57258582    
  -1.76854098      0.708016992      -0.00000000       218.377167      -1.57258582    
  -1.74518704      0.763773024      -0.00000000       218.377167      -1.57258582    
  -1.72007501      0.818759024      -0.00000000       218.377167      -1.57258582    
  -1.82783401      0.536701024      -0.00000000       219.135269      -1.57253313    
  -1.80988598      0.594424009      -0.00000000       219.135269      -1.57253313    
   0.00000000       0.00000000       0.00000000       219.135269      -1.57253313    
  -1.84394205      0.478437006      -0.00000000       219.135269      -1.57253313    
  -1.88107097      0.300992996      -0.00000000       220.682190      -1.57249355    
  -1.87057400      0.360523999      -0.00000000       220.682190      -1.57249355    
   0.00000000       0.00000000       0.00000000       220.682190      -1.57249355    
  -1.88967395      0.241159007      -0.00000000       220.682190      -1.57249355    
   0.00000000       0.00000000       0.00000000       219.897522      -1.57251120    
  -1.87057400      0.360523999      -0.00000000       219.897522      -1.57251120    
  -1.85819399      0.419692010      -0.00000000       219.897522      -1.57251120    
  -1.84394205      0.478437006      -0.00000000       219.897522      -1.57251120    
  -1.89637399      0.181081995      -0.00000000       221.334610      -1.57248127    
  -1.88967395      0.241159007      -0.00000000       221.334610      -1.57248127    
   0.00000000       0.00000000       0.00000000       221.334610      -1.57248127    
  -1.90116501      0.120823003      -0.00000000       221.334610      -1.57248127    
  -1.90404105      -6.04420006E-02  -0.00000000       221.732483      -1.57247472    
  -1.90499997       0.00000000      -0.00000000       221.732483      -1.57247472    
   0.00000000       0.00000000       0.00000000       221.732483      -1.57247472    
  -1.90116501     -0.120823003      -0.00000000       221.732483      -1.57247472    
   0.00000000       0.00000000       0.00000000       221.708511      -1.57247496    
  -1.90499997       0.00000000      -0.00000000       221.708511      -1.57247496    
  -1.90404105       6.04420006E-02  -0.00000000       221.708511      -1.57247496    
  -1.90116501      0.120823003      -0.00000000       221.708511      -1.57247496    
  -1.89637399     -0.181081995      -0.00000000       221.460327      -1.57248056    
  -1.90116501     -0.120823003      -0.00000000       221.460327      -1.57248056    
   0.00000000       0.00000000       0.00000000       221.460327      -1.57248056    
  -1.88967395     -0.241159007      -0.00000000       221.460327      -1.57248056    
  -1.85819399     -0.419692010      -0.00000000       220.398956      -1.57250822    
  -1.87057400     -0.360523999      -0.00000000       220.398956      -1.57250822    
   0.00000000       0.00000000       0.00000000       220.398956      -1.57250822    
  -1.84394205     -0.478437006      -0.00000000       220.398956      -1.57250822    
   0.00000000       0.00000000       0.00000000       220.955734      -1.57249200    
  -1.87057400     -0.360523999      -0.00000000       220.955734      -1.57249200    
  -1.88107097     -0.300992996      -0.00000000       220.955734      -1.57249200    
  -1.88967395     -0.241159007      -0.00000000       220.955734      -1.57249200    
  -1.82783401     -0.536701024      -0.00000000       219.874847      -1.57252848    
  -1.84394205     -0.478437006      -0.00000000       219.874847      -1.57252848    
   0.00000000       0.00000000       0.00000000       219.874847      -1.57252848    
  -1.80988598     -0.594424009      -0.00000000       219.874847      -1.57252848    
  -1.74518704     -0.763773024      -0.00000000       219.858124      -1.57257628    
  -1.76854098     -0.708016992      -0.00000000       219.858124      -1.57257628    
   0.00000000       0.00000000       0.00000000       219.858124      -1.57257628    
  -1.72007501     -0.818759024      -0.00000000       219.858124      -1.57257628    
   0.00000000       0.00000000       0.00000000       219.594543      -1.57255185    
  -1.76854098     -0.708016992      -0.00000000       219.594543      -1.57255185    
  -1.79011405     -0.651548028      -0.00000000       219.594543      -1.57255185    
  -1.80988598     -0.594424009      -0.00000000       219.594543      -1.57255185    
  -1.69323206     -0.872922003      -0.00000000       220.655029      -1.57260156    
  -1.72007501     -0.818759024      -0.00000000       220.655029      -1.57260156    
   0.00000000       0.00000000       0.00000000       220.655029      -1.57260156    
  -1.66468298     -0.926204979      -0.00000000       220.655029      -1.57260156    
  -1.56910396      -1.08024895      -0.00000000       223.667755      -1.57265544    
  -1.60258806      -1.02992105      -0.00000000       223.667755      -1.57265544    
   0.00000000       0.00000000       0.00000000       223.667755      -1.57265544    
  -1.53403997      -1.12949002      -0.00000000       223.667755      -1.57265544    
   0.00000000       0.00000000       0.00000000       222.007904      -1.57262719    
  -1.60258806      -1.02992105      -0.00000000       222.007904      -1.57262719    
  -1.63445795     -0.978555024      -0.00000000       222.007904      -1.57262719    
  -1.66468298     -0.926204979      -0.00000000       222.007904      -1.57262719    
  -1.49743104      -1.17759299      -0.00000000       225.311462      -1.57268703    
  -1.53403997      -1.12949002      -0.00000000       225.311462      -1.57268703    
   0.00000000       0.00000000       0.00000000       225.311462      -1.57268703    
  -1.45931494      -1.22450995      -0.00000000       225.311462      -1.57268703    
  -1.33631003      -1.35768199      -0.00000000       220.831375      -1.57281137    
  -1.37871301      -1.31459999      -0.00000000       220.831375      -1.57281137    
   0.00000000       0.00000000       0.00000000       220.831375      -1.57281137    
  -1.29255998      -1.39939702      -0.00000000       220.831375      -1.57281137    
   0.00000000       0.00000000       0.00000000       225.727432      -1.57273018    
  -1.37871301      -1.31459999      -0.00000000       225.727432      -1.57273018    
  -1.41972899      -1.27019501      -0.00000000       225.727432      -1.57273018    
  -1.45931494      -1.22450995      -0.00000000       225.727432      -1.57273018    
  -1.24750996      -1.43970299      -0.00000000       205.515640      -1.57297790    
  -1.29255998      -1.39939702      -0.00000000       205.515640      -1.57297790    
   0.00000000       0.00000000       0.00000000       205.515640      -1.57297790    
  -1.20120299      -1.47855902      -0.00000000       205.515640      -1.57297790    
  -1.05521798      -1.58604598      -0.00000000       163.698654      -1.57355177    
  -1.10500801      -1.55176699      -0.00000000       163.698654      -1.57355177    
   0.00000000       0.00000000       0.00000000       163.698654      -1.57355177    
  -1.00436401      -1.61872697      -0.00000000       163.698654      -1.57355177    
   0.00000000       0.00000000       0.00000000       184.970001      -1.57322693    
  -1.10500801      -1.55176699      -0.00000000       184.970001      -1.57322693    
  -1.15368605      -1.51592600      -0.00000000       184.970001      -1.57322693    
  -1.20120299      -1.47855902      -0.00000000       184.970001      -1.57322693    
 -0.952499986      -1.64977801      -0.00000000       142.855133      -1.57396984    
  -1.00436401      -1.61872697      -0.00000000       142.855133      -1.57396984    
   0.00000000       0.00000000       0.00000000       142.855133      -1.57396984    
 -0.899676025      -1.67916906      -0.00000000       142.855133      -1.57396984    
 -0.735987008      -1.75708497      -0.00000000       103.642197      -1.57524157    
 -0.791365981      -1.73284900      -0.00000000       103.642197      -1.57524157    
   0.00000000       0.00000000       0.00000000       103.642197      -1.57524157    
 -0.679867983      -1.77955198      -0.00000000       103.642197      -1.57524157    
   0.00000000       0.00000000       0.00000000       122.761421      -1.57451546    
 -0.791365981      -1.73284900      -0.00000000       122.761421      -1.57451546    
 -0.845947027      -1.70686805      -0.00000000       122.761421      -1.57451546    
 -0.899676025      -1.67916906      -0.00000000       122.761421      -1.57451546    
 -0.623063982      -1.80022705      -0.00000000       85.4075012      -1.57624829    
 -0.679867983      -1.77955198      -0.00000000       85.4075012      -1.57624829    
   0.00000000       0.00000000       0.00000000       85.4075012      -1.57624829    
 -0.565632999      -1.81908906      -0.00000000       85.4075012      -1.57624829    
 -0.390157014      -1.86461902      -0.00000000       50.9620552      -1.58015990    
 -0.449120998      -1.85130095      -0.00000000       50.9620552      -1.58015990    
   0.00000000       0.00000000       0.00000000       50.9620552      -1.58015990    
 -0.330799997      -1.87605906      -0.00000000       50.9620552      -1.58015990    
   0.00000000       0.00000000       0.00000000       67.9210510      -1.57773352    
 -0.449120998      -1.85130095      -0.00000000       67.9210510      -1.57773352    
 -0.507632971      -1.83611906      -0.00000000       67.9210510      -1.57773352    
 -0.565632999      -1.81908906      -0.00000000       67.9210510      -1.57773352    
 -0.271109998      -1.88560998      -0.00000000       34.4205513      -1.58484483    
 -0.330799997      -1.87605906      -0.00000000       34.4205513      -1.58484483    
   0.00000000       0.00000000       0.00000000       34.4205513      -1.58484483    
 -0.211146995      -1.89326203      -0.00000000       34.4205513      -1.58484483    
  -3.02249994E-02  -1.90476000      -0.00000000       2.00363827      -1.82133424    
  -9.06440020E-02  -1.90284204      -0.00000000       2.00363827      -1.82133424    
   0.00000000       0.00000000       0.00000000       2.00363827      -1.82133424    
   3.02249994E-02  -1.90476000      -0.00000000       2.00363827      -1.82133424    
   0.00000000       0.00000000       0.00000000       18.1540623      -1.59779787    
  -9.06440020E-02  -1.90284204      -0.00000000       18.1540623      -1.59779787    
 -0.150970995      -1.89900804      -0.00000000       18.1540623      -1.59779787    
 -0.211146995      -1.89326203      -0.00000000       18.1540623      -1.59779787    
   9.06440020E-02  -1.90284204      -0.00000000       14.2916460       1.60602570    
   3.02249994E-02  -1.90476000      -0.00000000       14.2916460       1.60602570    
   0.00000000       0.00000000       0.00000000       14.2916460       1.60602570    
  0.150970995      -1.89900804      -0.00000000       14.2916460       1.60602570    
  0.330799997      -1.87605906      -0.00000000       46.8953819       1.58180761    
  0.271109998      -1.88560998      -0.00000000       46.8953819       1.58180761    
   0.00000000       0.00000000       0.00000000       46.8953819       1.58180761    
  0.390157014      -1.86461902      -0.00000000       46.8953819       1.58180761    
   0.00000000       0.00000000       0.00000000       30.5110683       1.58751130    
  0.271109998      -1.88560998      -0.00000000       30.5110683       1.58751130    
  0.211146995      -1.89326203      -0.00000000       30.5110683       1.58751130    
  0.150970995      -1.89900804      -0.00000000       30.5110683       1.58751130    
  0.449120998      -1.85130095      -0.00000000       63.6539307       1.57900369    
  0.390157014      -1.86461902      -0.00000000       63.6539307       1.57900369    
   0.00000000       0.00000000       0.00000000       63.6539307       1.57900369    
  0.507632971      -1.83611906      -0.00000000       63.6539307       1.57900369    
  0.679867983      -1.77955198      -0.00000000       98.5766678       1.57620466    
  0.623063982      -1.80022705      -0.00000000       98.5766678       1.57620466    
   0.00000000       0.00000000       0.00000000       98.5766678       1.57620466    
  0.735987008      -1.75708497      -0.00000000       98.5766678       1.57620466    
   0.00000000       0.00000000       0.00000000       80.8270874       1.57732987    
  0.623063982      -1.80022705      -0.00000000       80.8270874       1.57732987    
  0.565632999      -1.81908906      -0.00000000       80.8270874       1.57732987    
  0.507632971      -1.83611906      -0.00000000       80.8270874       1.57732987    
  0.791365981      -1.73284900      -0.00000000       117.120407       1.57538462    
  0.735987008      -1.75708497      -0.00000000       117.120407       1.57538462    
   0.00000000       0.00000000       0.00000000       117.120407       1.57538462    
  0.845947027      -1.70686805      -0.00000000       117.120407       1.57538462    
   1.00436401      -1.61872697      -0.00000000       156.670609       1.57426322    
  0.952499986      -1.64977801      -0.00000000       156.670609       1.57426322    
   0.00000000       0.00000000       0.00000000       156.670609       1.57426322    
   1.05521798      -1.58604598      -0.00000000       156.670609       1.57426322    
   0.00000000       0.00000000       0.00000000       136.472122       1.57475913    
  0.952499986      -1.64977801      -0.00000000       136.472122       1.57475913    
  0.899676025      -1.67916906      -0.00000000       136.472122       1.57475913    
  0.845947027      -1.70686805      -0.00000000       136.472122       1.57475913    
   1.10500801      -1.55176699      -0.00000000       177.434280       1.57386506    
   1.05521798      -1.58604598      -0.00000000       177.434280       1.57386506    
   0.00000000       0.00000000       0.00000000       177.434280       1.57386506    
   1.15368605      -1.51592600      -0.00000000       177.434280       1.57386506    
   1.29255998      -1.39939702      -0.00000000       218.291992       1.57329357    
   1.24750996      -1.43970299      -0.00000000       218.291992       1.57329357    
   0.00000000       0.00000000       0.00000000       218.291992       1.57329357    
   1.33631003      -1.35768199      -0.00000000       218.291992       1.57329357    
   0.00000000       0.00000000       0.00000000       198.394318       1.57354307    
   1.24750996      -1.43970299      -0.00000000       198.394318       1.57354307    
   1.20120299      -1.47855902      -0.00000000       198.394318       1.57354307    