 VARIABLES="X" "Y" "Z" "abs(p) (Pa)" "angle(p) (rad)"
ZONE N=    802,E =     800, F=FEPOINT, ET=QUADRILATERAL
   1.90499997       0.00000000      -0.00000000       588.672180       1.60947311    
   1.90404105      -6.04420006E-02  -0.00000000       588.672180       1.60947311    
   0.00000000       0.00000000       0.00000000       588.672180       1.60947311    
   1.90404105       6.04420006E-02  -0.00000000       588.672180       1.60947311    
   1.88967395      0.241159007      -0.00000000       587.531311       1.60864627    
   1.89637399      0.181081995      -0.00000000       587.531311       1.60864627    
   0.00000000       0.00000000       0.00000000       587.531311       1.60864627    
   1.88107097      0.300992996      -0.00000000       587.531311       1.60864627    
   0.00000000       0.00000000       0.00000000       588.415466       1.60927033    
   1.89637399      0.181081995      -0.00000000       588.415466       1.60927033    
   1.90116501      0.120823003      -0.00000000       588.415466       1.60927033    
   1.90404105       6.04420006E-02  -0.00000000       588.415466       1.60927033    
   1.87057400      0.360523999      -0.00000000       586.414429       1.60752439    
   1.88107097      0.300992996      -0.00000000       586.414429       1.60752439    
   0.00000000       0.00000000       0.00000000       586.414429       1.60752439    
   1.85819399      0.419692010      -0.00000000       586.414429       1.60752439    
   1.80988598      0.594424009      -0.00000000       588.875732       1.60269165    
   1.82783401      0.536701024      -0.00000000       588.875732       1.60269165    
   0.00000000       0.00000000       0.00000000       588.875732       1.60269165    
   1.79011405      0.651548028      -0.00000000       588.875732       1.60269165    
   0.00000000       0.00000000       0.00000000       586.514771       1.60560644    
   1.82783401      0.536701024      -0.00000000       586.514771       1.60560644    
   1.84394205      0.478437006      -0.00000000       586.514771       1.60560644    
   1.85819399      0.419692010      -0.00000000       586.514771       1.60560644    
   1.76854098      0.708016992      -0.00000000       594.236450       1.59864402    
   1.79011405      0.651548028      -0.00000000       594.236450       1.59864402    
   0.00000000       0.00000000       0.00000000       594.236450       1.59864402    
   1.74518704      0.763773024      -0.00000000       594.236450       1.59864402    
   1.66468298      0.926204979      -0.00000000       617.035278       1.58686543    
   1.69323206      0.872922003      -0.00000000       617.035278       1.58686543    
   0.00000000       0.00000000       0.00000000       617.035278       1.58686543    
   1.63445795      0.978555024      -0.00000000       617.035278       1.58686543    
   0.00000000       0.00000000       0.00000000       603.558838       1.59333706    
   1.69323206      0.872922003      -0.00000000       603.558838       1.59333706    
   1.72007501      0.818759024      -0.00000000       603.558838       1.59333706    
   1.74518704      0.763773024      -0.00000000       603.558838       1.59333706    
   1.60258806       1.02992105      -0.00000000       633.807251       1.57949090    
   1.63445795      0.978555024      -0.00000000       633.807251       1.57949090    
   0.00000000       0.00000000       0.00000000       633.807251       1.57949090    
   1.56910396       1.08024895      -0.00000000       633.807251       1.57949090    
   1.45931494       1.22450995      -0.00000000       665.153870       1.56429601    
   1.49743104       1.17759299      -0.00000000       665.153870       1.56429601    
   0.00000000       0.00000000       0.00000000       665.153870       1.56429601    
   1.41972899       1.27019501      -0.00000000       665.153870       1.56429601    
   0.00000000       0.00000000       0.00000000       651.336975       1.57173979    
   1.49743104       1.17759299      -0.00000000       651.336975       1.57173979    
   1.53403997       1.12949002      -0.00000000       651.336975       1.57173979    
   1.56910396       1.08024895      -0.00000000       651.336975       1.57173979    
   1.37871301       1.31459999      -0.00000000       659.688171       1.55945444    
   1.41972899       1.27019501      -0.00000000       659.688171       1.55945444    
   0.00000000       0.00000000       0.00000000       659.688171       1.55945444    
   1.33631003       1.35768199      -0.00000000       659.688171       1.55945444    
   1.20120299       1.47855902      -0.00000000       553.590820       1.56376028    
   1.24750996       1.43970299      -0.00000000       553.590820       1.56376028    
   0.00000000       0.00000000       0.00000000       553.590820       1.56376028    
   1.15368605       1.51592600      -0.00000000       553.590820       1.56376028    
   0.00000000       0.00000000       0.00000000       616.434448       1.56004202    
   1.24750996       1.43970299      -0.00000000       616.434448       1.56004202    
   1.29255998       1.39939702      -0.00000000       616.434448       1.56004202    
   1.33631003       1.35768199      -0.00000000       616.434448       1.56004202    
   1.10500801       1.55176699      -0.00000000       487.989838       1.56833255    
   1.15368605       1.51592600      -0.00000000       487.989838       1.56833255    
   0.00000000       0.00000000       0.00000000       487.989838       1.56833255    
   1.05521798       1.58604598      -0.00000000       487.989838       1.56833255    
  0.899676025       1.67916906      -0.00000000       365.038727       1.57771790    
  0.952499986       1.64977801      -0.00000000       365.038727       1.57771790    
   0.00000000       0.00000000       0.00000000       365.038727       1.57771790    
  0.845947027       1.70686805      -0.00000000       365.038727       1.57771790    
   0.00000000       0.00000000       0.00000000       424.234100       1.57316685    
  0.952499986       1.64977801      -0.00000000       424.234100       1.57316685    
   1.00436401       1.61872697      -0.00000000       424.234100       1.57316685    
   1.05521798       1.58604598      -0.00000000       424.234100       1.57316685    
  0.791365981       1.73284900      -0.00000000       310.452179       1.58180177    
  0.845947027       1.70686805      -0.00000000       310.452179       1.58180177    
   0.00000000       0.00000000       0.00000000       310.452179       1.58180177    
  0.735987008       1.75708497      -0.00000000       310.452179       1.58180177    
  0.565632999       1.81908906      -0.00000000       212.239670       1.58842123    
  0.623063982       1.80022705      -0.00000000       212.239670       1.58842123    
   0.00000000       0.00000000       0.00000000       212.239670       1.58842123    
  0.507632971       1.83611906      -0.00000000       212.239670       1.58842123    
   0.00000000       0.00000000       0.00000000       259.863129       1.58531404    
  0.623063982       1.80022705      -0.00000000       259.863129       1.58531404    
  0.679867983       1.77955198      -0.00000000       259.863129       1.58531404    
  0.735987008       1.75708497      -0.00000000       259.863129       1.58531404    
  0.449120998       1.85130095      -0.00000000       166.497391       1.59157610    
  0.507632971       1.83611906      -0.00000000       166.497391       1.59157610    
   0.00000000       0.00000000       0.00000000       166.497391       1.59157610    
  0.390157014       1.86461902      -0.00000000       166.497391       1.59157610    
  0.211146995       1.89326203      -0.00000000       76.7651596       1.60455263    
  0.271109998       1.88560998      -0.00000000       76.7651596       1.60455263    
   0.00000000       0.00000000       0.00000000       76.7651596       1.60455263    
  0.150970995       1.89900804      -0.00000000       76.7651596       1.60455263    
   0.00000000       0.00000000       0.00000000       121.545250       1.59586000    
  0.271109998       1.88560998      -0.00000000       121.545250       1.59586000    
  0.330799997       1.87605906      -0.00000000       121.545250       1.59586000    
  0.390157014       1.86461902      -0.00000000       121.545250       1.59586000    
   9.06440020E-02   1.90284204      -0.00000000       32.4235229       1.63514447    
  0.150970995       1.89900804      -0.00000000       32.4235229       1.63514447    
   0.00000000       0.00000000       0.00000000       32.4235229       1.63514447    
   3.02249994E-02   1.90476000      -0.00000000       32.4235229       1.63514447    
 -0.150970995       1.89900804      -0.00000000       56.2687569      -1.58939016    
  -9.06440020E-02   1.90284204      -0.00000000       56.2687569      -1.58939016    
   0.00000000       0.00000000       0.00000000       56.2687569      -1.58939016    
 -0.211146995       1.89326203      -0.00000000       56.2687569      -1.58939016    
   0.00000000       0.00000000       0.00000000       11.9495897      -1.70165646    
  -9.06440020E-02   1.90284204      -0.00000000       11.9495897      -1.70165646    
  -3.02249994E-02   1.90476000      -0.00000000       11.9495897      -1.70165646    
   3.02249994E-02   1.90476000      -0.00000000       11.9495897      -1.70165646    
 -0.271109998       1.88560998      -0.00000000       100.899879      -1.57637143    
 -0.211146995       1.89326203      -0.00000000       100.899879      -1.57637143    
   0.00000000       0.00000000       0.00000000       100.899879      -1.57637143    
 -0.330799997       1.87605906      -0.00000000       100.899879      -1.57637143    
 -0.507632971       1.83611906      -0.00000000       191.365616      -1.56963074    
 -0.449120998       1.85130095      -0.00000000       191.365616      -1.56963074    
   0.00000000       0.00000000       0.00000000       191.365616      -1.56963074    
 -0.565632999       1.81908906      -0.00000000       191.365616      -1.56963074    
   0.00000000       0.00000000       0.00000000       145.607925      -1.57150245    
 -0.449120998       1.85130095      -0.00000000       145.607925      -1.57150245    
 -0.390157014       1.86461902      -0.00000000       145.607925      -1.57150245    
 -0.330799997       1.87605906      -0.00000000       145.607925      -1.57150245    
 -0.623063982       1.80022705      -0.00000000       239.143753      -1.56952238    
 -0.565632999       1.81908906      -0.00000000       239.143753      -1.56952238    
   0.00000000       0.00000000       0.00000000       239.143753      -1.56952238    
 -0.679867983       1.77955198      -0.00000000       239.143753      -1.56952238    
 -0.845947027       1.70686805      -0.00000000       344.183044      -1.57299447    
 -0.791365981       1.73284900      -0.00000000       344.183044      -1.57299447    
   0.00000000       0.00000000       0.00000000       344.183044      -1.57299447    
 -0.899676025       1.67916906      -0.00000000       344.183044      -1.57299447    
   0.00000000       0.00000000       0.00000000       289.744171      -1.57070911    
 -0.791365981       1.73284900      -0.00000000       289.744171      -1.57070911    
 -0.735987008       1.75708497      -0.00000000       289.744171      -1.57070911    
 -0.679867983       1.77955198      -0.00000000       289.744171      -1.57070911    
 -0.952499986       1.64977801      -0.00000000       402.872925      -1.57606518    
 -0.899676025       1.67916906      -0.00000000       402.872925      -1.57606518    
   0.00000000       0.00000000       0.00000000       402.872925      -1.57606518    
  -1.00436401       1.61872697      -0.00000000       402.872925      -1.57606518    
  -1.15368605       1.51592600      -0.00000000       527.933044      -1.58300936    
  -1.10500801       1.55176699      -0.00000000       527.933044      -1.58300936    
   0.00000000       0.00000000       0.00000000       527.933044      -1.58300936    
  -1.20120299       1.47855902      -0.00000000       527.933044      -1.58300936    
   0.00000000       0.00000000       0.00000000       464.932037      -1.57957482    
  -1.10500801       1.55176699      -0.00000000       464.932037      -1.57957482    
  -1.05521798       1.58604598      -0.00000000       464.932037      -1.57957482    
  -1.00436401       1.61872697      -0.00000000       464.932037      -1.57957482    
  -1.24750996       1.43970299      -0.00000000       587.624023      -1.58580804    
  -1.20120299       1.47855902      -0.00000000       587.624023      -1.58580804    
   0.00000000       0.00000000       0.00000000       587.624023      -1.58580804    
  -1.29255998       1.39939702      -0.00000000       587.624023      -1.58580804    
  -1.41972899       1.27019501      -0.00000000       633.577942      -1.58068132    
  -1.37871301       1.31459999      -0.00000000       633.577942      -1.58068132    
   0.00000000       0.00000000       0.00000000       633.577942      -1.58068132    
  -1.45931494       1.22450995      -0.00000000       633.577942      -1.58068132    
   0.00000000       0.00000000       0.00000000       628.820740      -1.58585429    
  -1.37871301       1.31459999      -0.00000000       628.820740      -1.58585429    
  -1.33631003       1.35768199      -0.00000000       628.820740      -1.58585429    
  -1.29255998       1.39939702      -0.00000000       628.820740      -1.58585429    
  -1.49743104       1.17759299      -0.00000000       619.299255      -1.57284176    
  -1.45931494       1.22450995      -0.00000000       619.299255      -1.57284176    
   0.00000000       0.00000000       0.00000000       619.299255      -1.57284176    
  -1.53403997       1.12949002      -0.00000000       619.299255      -1.57284176    
  -1.63445795      0.978555024      -0.00000000       586.286194      -1.55703354    
  -1.60258806       1.02992105      -0.00000000       586.286194      -1.55703354    
   0.00000000       0.00000000       0.00000000       586.286194      -1.55703354    
  -1.66468298      0.926204979      -0.00000000       586.286194      -1.55703354    
   0.00000000       0.00000000       0.00000000       602.013977      -1.56471086    
  -1.60258806       1.02992105      -0.00000000       602.013977      -1.56471086    
  -1.56910396       1.08024895      -0.00000000       602.013977      -1.56471086    
  -1.53403997       1.12949002      -0.00000000       602.013977      -1.56471086    
  -1.69323206      0.872922003      -0.00000000       574.585571      -1.55037761    
  -1.66468298      0.926204979      -0.00000000       574.585571      -1.55037761    
   0.00000000       0.00000000       0.00000000       574.585571      -1.55037761    
  -1.72007501      0.818759024      -0.00000000       574.585571      -1.55037761    
  -1.79011405      0.651548028      -0.00000000       563.001343      -1.54069459    
  -1.76854098      0.708016992      -0.00000000       563.001343      -1.54069459    
   0.00000000       0.00000000       0.00000000       563.001343      -1.54069459    
  -1.80988598      0.594424009      -0.00000000       563.001343      -1.54069459    
   0.00000000       0.00000000       0.00000000       566.930542      -1.54490280    
  -1.76854098      0.708016992      -0.00000000       566.930542      -1.54490280    
  -1.74518704      0.763773024      -0.00000000       566.930542      -1.54490280    
  -1.72007501      0.818759024      -0.00000000       566.930542      -1.54490280    
  -1.82783401      0.536701024      -0.00000000       561.896667      -1.53762126    
  -1.80988598      0.594424009      -0.00000000       561.896667      -1.53762126    
   0.00000000       0.00000000       0.00000000       561.896667      -1.53762126    
  -1.84394205      0.478437006      -0.00000000       561.896667      -1.53762126    
  -1.88107097      0.300992996      -0.00000000       564.281128      -1.53413570    
  -1.87057400      0.360523999      -0.00000000       564.281128      -1.53413570    
   0.00000000       0.00000000       0.00000000       564.281128      -1.53413570    
  -1.88967395      0.241159007      -0.00000000       564.281128      -1.53413570    
   0.00000000       0.00000000       0.00000000       562.661743      -1.53550446    
  -1.87057400      0.360523999      -0.00000000       562.661743      -1.53550446    
  -1.85819399      0.419692010      -0.00000000       562.661743      -1.53550446    
  -1.84394205      0.478437006      -0.00000000       562.661743      -1.53550446    
  -1.89637399      0.181081995      -0.00000000       565.637512      -1.53328383    
  -1.88967395      0.241159007      -0.00000000       565.637512      -1.53328383    
   0.00000000       0.00000000       0.00000000       565.637512      -1.53328383    
  -1.90116501      0.120823003      -0.00000000       565.637512      -1.53328383    
  -1.90404105      -6.04420006E-02  -0.00000000       566.609680      -1.53291774    
  -1.90499997       0.00000000      -0.00000000       566.609680      -1.53291774    
   0.00000000       0.00000000       0.00000000       566.609680      -1.53291774    
  -1.90116501     -0.120823003      -0.00000000       566.609680      -1.53291774    
   0.00000000       0.00000000       0.00000000       566.569885      -1.53291678    
  -1.90499997       0.00000000      -0.00000000       566.569885      -1.53291678    
  -1.90404105       6.04420006E-02  -0.00000000       566.569885      -1.53291678    
  -1.90116501      0.120823003      -0.00000000       566.569885      -1.53291678    
  -1.89637399     -0.181081995      -0.00000000       565.888428      -1.53331220    
  -1.90116501     -0.120823003      -0.00000000       565.888428      -1.53331220    
   0.00000000       0.00000000       0.00000000       565.888428      -1.53331220    
  -1.88967395     -0.241159007      -0.00000000       565.888428      -1.53331220    
  -1.85819399     -0.419692010      -0.00000000       563.676941      -1.53564179    
  -1.87057400     -0.360523999      -0.00000000       563.676941      -1.53564179    
   0.00000000       0.00000000       0.00000000       563.676941      -1.53564179    
  -1.84394205     -0.478437006      -0.00000000       563.676941      -1.53564179    
   0.00000000       0.00000000       0.00000000       564.740112      -1.53418899    
  -1.87057400     -0.360523999      -0.00000000       564.740112      -1.53418899    
  -1.88107097     -0.300992996      -0.00000000       564.740112      -1.53418899    
  -1.88967395     -0.241159007      -0.00000000       564.740112      -1.53418899    
  -1.82783401     -0.536701024      -0.00000000       563.806396      -1.53789330    
  -1.84394205     -0.478437006      -0.00000000       563.806396      -1.53789330    
   0.00000000       0.00000000       0.00000000       563.806396      -1.53789330    
  -1.80988598     -0.594424009      -0.00000000       563.806396      -1.53789330    
  -1.74518704     -0.763773024      -0.00000000       570.868591      -1.54541647    
  -1.76854098     -0.708016992      -0.00000000       570.868591      -1.54541647    
   0.00000000       0.00000000       0.00000000       570.868591      -1.54541647    
  -1.72007501     -0.818759024      -0.00000000       570.868591      -1.54541647    
   0.00000000       0.00000000       0.00000000       565.957092      -1.54110801    
  -1.76854098     -0.708016992      -0.00000000       565.957092      -1.54110801    
  -1.79011405     -0.651548028      -0.00000000       565.957092      -1.54110801    
  -1.80988598     -0.594424009      -0.00000000       565.957092      -1.54110801    
  -1.69323206     -0.872922003      -0.00000000       579.475952      -1.55094516    
  -1.72007501     -0.818759024      -0.00000000       579.475952      -1.55094516    
   0.00000000       0.00000000       0.00000000       579.475952      -1.55094516    
  -1.66468298     -0.926204979      -0.00000000       579.475952      -1.55094516    
  -1.56910396      -1.08024895      -0.00000000       607.533020      -1.56510425    
  -1.60258806      -1.02992105      -0.00000000       607.533020      -1.56510425    
   0.00000000       0.00000000       0.00000000       607.533020      -1.56510425    
  -1.53403997      -1.12949002      -0.00000000       607.533020      -1.56510425    
   0.00000000       0.00000000       0.00000000       591.927612      -1.55758178    
  -1.60258806      -1.02992105      -0.00000000       591.927612      -1.55758178    
  -1.63445795     -0.978555024      -0.00000000       591.927612      -1.55758178    
  -1.66468298     -0.926204979      -0.00000000       591.927612      -1.55758178    
  -1.49743104      -1.17759299      -0.00000000       623.719666      -1.57298172    
  -1.53403997      -1.12949002      -0.00000000       623.719666      -1.57298172    
   0.00000000       0.00000000       0.00000000       623.719666      -1.57298172    
  -1.45931494      -1.22450995      -0.00000000       623.719666      -1.57298172    
  -1.33631003      -1.35768199      -0.00000000       629.647034      -1.58562696    
  -1.37871301      -1.31459999      -0.00000000       629.647034      -1.58562696    
   0.00000000       0.00000000       0.00000000       629.647034      -1.58562696    
  -1.29255998      -1.39939702      -0.00000000       629.647034      -1.58562696    
   0.00000000       0.00000000       0.00000000       636.155945      -1.58056128    
  -1.37871301      -1.31459999      -0.00000000       636.155945      -1.58056128    
  -1.41972899      -1.27019501      -0.00000000       636.155945      -1.58056128    
  -1.45931494      -1.22450995      -0.00000000       636.155945      -1.58056128    
  -1.24750996      -1.43970299      -0.00000000       586.500244      -1.58552492    
  -1.29255998      -1.39939702      -0.00000000       586.500244      -1.58552492    
   0.00000000       0.00000000       0.00000000       586.500244      -1.58552492    
  -1.20120299      -1.47855902      -0.00000000       586.500244      -1.58552492    
  -1.05521798      -1.58604598      -0.00000000       459.869385      -1.57889628    
  -1.10500801      -1.55176699      -0.00000000       459.869385      -1.57889628    
   0.00000000       0.00000000       0.00000000       459.869385      -1.57889628    
  -1.00436401      -1.61872697      -0.00000000       459.869385      -1.57889628    
   0.00000000       0.00000000       0.00000000       524.521912      -1.58254862    
  -1.10500801      -1.55176699      -0.00000000       524.521912      -1.58254862    
  -1.15368605      -1.51592600      -0.00000000       524.521912      -1.58254862    
  -1.20120299      -1.47855902      -0.00000000       524.521912      -1.58254862    
 -0.952499986      -1.64977801      -0.00000000       396.963318      -1.57517767    
  -1.00436401      -1.61872697      -0.00000000       396.963318      -1.57517767    
   0.00000000       0.00000000       0.00000000       396.963318      -1.57517767    
 -0.899676025      -1.67916906      -0.00000000       396.963318      -1.57517767    
 -0.735987008      -1.75708497      -0.00000000       284.465637      -1.56961310    
 -0.791365981      -1.73284900      -0.00000000       284.465637      -1.56961310    
   0.00000000       0.00000000       0.00000000       284.465637      -1.56961310    
 -0.679867983      -1.77955198      -0.00000000       284.465637      -1.56961310    
   0.00000000       0.00000000       0.00000000       338.489532      -1.57198989    
 -0.791365981      -1.73284900      -0.00000000       338.489532      -1.57198989    
 -0.845947027      -1.70686805      -0.00000000       338.489532      -1.57198989    
 -0.899676025      -1.67916906      -0.00000000       338.489532      -1.57198989    
 -0.623063982      -1.80022705      -0.00000000       234.300064      -1.56833363    
 -0.679867983      -1.77955198      -0.00000000       234.300064      -1.56833363    
   0.00000000       0.00000000       0.00000000       234.300064      -1.56833363    
 -0.565632999      -1.81908906      -0.00000000       234.300064      -1.56833363    
 -0.390157014      -1.86461902      -0.00000000       141.576416      -1.57006955    
 -0.449120998      -1.85130095      -0.00000000       141.576416      -1.57006955    
   0.00000000       0.00000000       0.00000000       141.576416      -1.57006955    
 -0.330799997      -1.87605906      -0.00000000       141.576416      -1.57006955    
   0.00000000       0.00000000       0.00000000       187.021988      -1.56836188    
 -0.449120998      -1.85130095      -0.00000000       187.021988      -1.56836188    
 -0.507632971      -1.83611906      -0.00000000       187.021988      -1.56836188    
 -0.565632999      -1.81908906      -0.00000000       187.021988      -1.56836188    
 -0.271109998      -1.88560998      -0.00000000       96.8649979      -1.57453144    
 -0.330799997      -1.87605906      -0.00000000       96.8649979      -1.57453144    
   0.00000000       0.00000000       0.00000000       96.8649979      -1.57453144    
 -0.211146995      -1.89326203      -0.00000000       96.8649979      -1.57453144    
  -3.02249994E-02  -1.90476000      -0.00000000       8.12060070      -1.74107623    
  -9.06440020E-02  -1.90284204      -0.00000000       8.12060070      -1.74107623    
   0.00000000       0.00000000       0.00000000       8.12060070      -1.74107623    
   3.02249994E-02  -1.90476000      -0.00000000       8.12060070      -1.74107623    
   0.00000000       0.00000000       0.00000000       52.2752914      -1.58710968    
  -9.06440020E-02  -1.90284204      -0.00000000       52.2752914      -1.58710968    
 -0.150970995      -1.89900804      -0.00000000       52.2752914      -1.58710968    
 -0.211146995      -1.89326203      -0.00000000       52.2752914      -1.58710968    
   9.06440020E-02  -1.90284204      -0.00000000       36.2673607       1.62325203    
   3.02249994E-02  -1.90476000      -0.00000000       36.2673607       1.62325203    
   0.00000000       0.00000000       0.00000000       36.2673607       1.62325203    
  0.150970995      -1.89900804      -0.00000000       36.2673607       1.62325203    
  0.330799997      -1.87605906      -0.00000000       125.651436       1.59340298    
  0.271109998      -1.88560998      -0.00000000       125.651436       1.59340298    
   0.00000000       0.00000000       0.00000000       125.651436       1.59340298    
  0.390157014      -1.86461902      -0.00000000       125.651436       1.59340298    
   0.00000000       0.00000000       0.00000000       80.8015213       1.60042131    
  0.271109998      -1.88560998      -0.00000000       80.8015213       1.60042131    
  0.211146995      -1.89326203      -0.00000000       80.8015213       1.60042131    
  0.150970995      -1.89900804      -0.00000000       80.8015213       1.60042131    
  0.449120998      -1.85130095      -0.00000000       170.650238       1.58980215    
  0.390157014      -1.86461902      -0.00000000       170.650238       1.58980215    
   0.00000000       0.00000000       0.00000000       170.650238       1.58980215    
  0.507632971      -1.83611906      -0.00000000       170.650238       1.58980215    
  0.679867983      -1.77955198      -0.00000000       264.942780       1.58393049    
  0.623063982      -1.80022705      -0.00000000       264.942780       1.58393049    
   0.00000000       0.00000000       0.00000000       264.942780       1.58393049    
  0.735987008      -1.75708497      -0.00000000       264.942780       1.58393049    
   0.00000000       0.00000000       0.00000000       216.760880       1.58691180    
  0.623063982      -1.80022705      -0.00000000       216.760880       1.58691180    
  0.565632999      -1.81908906      -0.00000000       216.760880       1.58691180    
  0.507632971      -1.83611906      -0.00000000       216.760880       1.58691180    
  0.791365981      -1.73284900      -0.00000000       316.029846       1.58053756    
  0.735987008      -1.75708497      -0.00000000       316.029846       1.58053756    
   0.00000000       0.00000000       0.00000000       316.029846       1.58053756    
  0.845947027      -1.70686805      -0.00000000       316.029846       1.58053756    
   1.00436401      -1.61872697      -0.00000000       430.546722       1.57215881    
  0.952499986      -1.64977801      -0.00000000       430.546722       1.57215881    
   0.00000000       0.00000000       0.00000000       430.546722       1.57215881    
   1.05521798      -1.58604598      -0.00000000       430.546722       1.57215881    
   0.00000000       0.00000000       0.00000000       371.116821       1.57656646    
  0.952499986      -1.64977801      -0.00000000       371.116821       1.57656646    
  0.899676025      -1.67916906      -0.00000000       371.116821       1.57656646    
  0.845947027      -1.70686805      -0.00000000       371.116821       1.57656646    
   1.10500801      -1.55176699      -0.00000000       493.470032       1.56756330    
   1.05521798      -1.58604598      -0.00000000       493.470032       1.56756330    
   0.00000000       0.00000000       0.00000000       493.470032       1.56756330    
   1.15368605      -1.51592600      -0.00000000       493.470032       1.56756330    
   1.29255998      -1.39939702      -0.00000000       617.913635       1.55971992    
   1.24750996      -1.43970299      -0.00000000       617.913635       1.55971992    
   0.00000000       0.00000000       0.00000000       617.913635       1.55971992    
   1.33631003      -1.35768199      -0.00000000       617.913635       1.55971992    
   0.00000000       0.00000000       0.00000000       557.400818       1.56323421    
   1.24750996      -1.43970299      -0.00000000       557.400818       1.56323421    
   1.20120299      -1.47855902      -0.00000000       557.400818       1.56323421    