 VARIABLES="X" "Y" "Z" "abs(p) (Pa)" "angle(p) (rad)"
ZONE N=    802,E =     800, F=FEPOINT, ET=QUADRILATERAL
   1.90499997       0.00000000      -0.00000000       1009.15881       1.57199812    
   1.90404105      -6.04420006E-02  -0.00000000       1009.15881       1.57199812    
   0.00000000       0.00000000       0.00000000       1009.15881       1.57199812    
   1.90404105       6.04420006E-02  -0.00000000       1009.15881       1.57199812    
   1.88967395      0.241159007      -0.00000000       1007.53760       1.57199943    
   1.89637399      0.181081995      -0.00000000       1007.53760       1.57199943    
   0.00000000       0.00000000       0.00000000       1007.53760       1.57199943    
   1.88107097      0.300992996      -0.00000000       1007.53760       1.57199943    
   0.00000000       0.00000000       0.00000000       1008.77649       1.57199836    
   1.89637399      0.181081995      -0.00000000       1008.77649       1.57199836    
   1.90116501      0.120823003      -0.00000000       1008.77649       1.57199836    
   1.90404105       6.04420006E-02  -0.00000000       1008.77649       1.57199836    
   1.87057400      0.360523999      -0.00000000       1006.22980       1.57200015    
   1.88107097      0.300992996      -0.00000000       1006.22980       1.57200015    
   0.00000000       0.00000000       0.00000000       1006.22980       1.57200015    
   1.85819399      0.419692010      -0.00000000       1006.22980       1.57200015    
   1.80988598      0.594424009      -0.00000000       1005.39532       1.57199848    
   1.82783401      0.536701024      -0.00000000       1005.39532       1.57199848    
   0.00000000       0.00000000       0.00000000       1005.39532       1.57199848    
   1.79011405      0.651548028      -0.00000000       1005.39532       1.57199848    
   0.00000000       0.00000000       0.00000000       1005.23260       1.57200027    
   1.82783401      0.536701024      -0.00000000       1005.23260       1.57200027    
   1.84394205      0.478437006      -0.00000000       1005.23260       1.57200027    
   1.85819399      0.419692010      -0.00000000       1005.23260       1.57200027    
   1.76854098      0.708016992      -0.00000000       1008.07379       1.57199335    
   1.79011405      0.651548028      -0.00000000       1008.07379       1.57199335    
   0.00000000       0.00000000       0.00000000       1008.07379       1.57199335    
   1.74518704      0.763773024      -0.00000000       1008.07379       1.57199335    
   1.66468298      0.926204979      -0.00000000       1021.52063       1.57197237    
   1.69323206      0.872922003      -0.00000000       1021.52063       1.57197237    
   0.00000000       0.00000000       0.00000000       1021.52063       1.57197237    
   1.63445795      0.978555024      -0.00000000       1021.52063       1.57197237    
   0.00000000       0.00000000       0.00000000       1013.49597       1.57198453    
   1.69323206      0.872922003      -0.00000000       1013.49597       1.57198453    
   1.72007501      0.818759024      -0.00000000       1013.49597       1.57198453    
   1.74518704      0.763773024      -0.00000000       1013.49597       1.57198453    
   1.60258806       1.02992105      -0.00000000       1030.93652       1.57195842    
   1.63445795      0.978555024      -0.00000000       1030.93652       1.57195842    
   0.00000000       0.00000000       0.00000000       1030.93652       1.57195842    
   1.56910396       1.08024895      -0.00000000       1030.93652       1.57195842    
   1.45931494       1.22450995      -0.00000000       1044.31873       1.57193625    
   1.49743104       1.17759299      -0.00000000       1044.31873       1.57193625    
   0.00000000       0.00000000       0.00000000       1044.31873       1.57193625    
   1.41972899       1.27019501      -0.00000000       1044.31873       1.57193625    
   0.00000000       0.00000000       0.00000000       1040.22961       1.57194448    
   1.49743104       1.17759299      -0.00000000       1040.22961       1.57194448    
   1.53403997       1.12949002      -0.00000000       1040.22961       1.57194448    
   1.56910396       1.08024895      -0.00000000       1040.22961       1.57194448    
   1.37871301       1.31459999      -0.00000000       1024.79529       1.57195497    
   1.41972899       1.27019501      -0.00000000       1024.79529       1.57195497    
   0.00000000       0.00000000       0.00000000       1024.79529       1.57195497    
   1.33631003       1.35768199      -0.00000000       1024.79529       1.57195497    
   1.20120299       1.47855902      -0.00000000       866.571472       1.57216573    
   1.24750996       1.43970299      -0.00000000       866.571472       1.57216573    
   0.00000000       0.00000000       0.00000000       866.571472       1.57216573    
   1.15368605       1.51592600      -0.00000000       866.571472       1.57216573    
   0.00000000       0.00000000       0.00000000       957.556458       1.57203555    
   1.24750996       1.43970299      -0.00000000       957.556458       1.57203555    
   1.29255998       1.39939702      -0.00000000       957.556458       1.57203555    
   1.33631003       1.35768199      -0.00000000       957.556458       1.57203555    
   1.10500801       1.55176699      -0.00000000       772.185181       1.57233322    
   1.15368605       1.51592600      -0.00000000       772.185181       1.57233322    
   0.00000000       0.00000000       0.00000000       772.185181       1.57233322    
   1.05521798       1.58604598      -0.00000000       772.185181       1.57233322    
  0.899676025       1.67916906      -0.00000000       590.557373       1.57280374    
  0.952499986       1.64977801      -0.00000000       590.557373       1.57280374    
   0.00000000       0.00000000       0.00000000       590.557373       1.57280374    
  0.845947027       1.70686805      -0.00000000       590.557373       1.57280374    
   0.00000000       0.00000000       0.00000000       679.701599       1.57254159    
  0.952499986       1.64977801      -0.00000000       679.701599       1.57254159    
   1.00436401       1.61872697      -0.00000000       679.701599       1.57254159    
   1.05521798       1.58604598      -0.00000000       679.701599       1.57254159    
  0.791365981       1.73284900      -0.00000000       505.897186       1.57313740    
  0.845947027       1.70686805      -0.00000000       505.897186       1.57313740    
   0.00000000       0.00000000       0.00000000       505.897186       1.57313740    
  0.735987008       1.75708497      -0.00000000       505.897186       1.57313740    
  0.565632999       1.81908906      -0.00000000       347.773529       1.57419252    
  0.623063982       1.80022705      -0.00000000       347.773529       1.57419252    
   0.00000000       0.00000000       0.00000000       347.773529       1.57419252    
  0.507632971       1.83611906      -0.00000000       347.773529       1.57419252    
   0.00000000       0.00000000       0.00000000       425.217316       1.57357800    
  0.623063982       1.80022705      -0.00000000       425.217316       1.57357800    
  0.679867983       1.77955198      -0.00000000       425.217316       1.57357800    
  0.735987008       1.75708497      -0.00000000       425.217316       1.57357800    
  0.449120998       1.85130095      -0.00000000       272.767975       1.57511950    
  0.507632971       1.83611906      -0.00000000       272.767975       1.57511950    
   0.00000000       0.00000000       0.00000000       272.767975       1.57511950    
  0.390157014       1.86461902      -0.00000000       272.767975       1.57511950    
  0.211146995       1.89326203      -0.00000000       128.038406       1.57997286    
  0.271109998       1.88560998      -0.00000000       128.038406       1.57997286    
   0.00000000       0.00000000       0.00000000       128.038406       1.57997286    
  0.150970995       1.89900804      -0.00000000       128.038406       1.57997286    
   0.00000000       0.00000000       0.00000000       199.727921       1.57668972    
  0.271109998       1.88560998      -0.00000000       199.727921       1.57668972    
  0.330799997       1.87605906      -0.00000000       199.727921       1.57668972    
  0.390157014       1.86461902      -0.00000000       199.727921       1.57668972    
   9.06440020E-02   1.90284204      -0.00000000       56.7056351       1.59147799    
  0.150970995       1.89900804      -0.00000000       56.7056351       1.59147799    
   0.00000000       0.00000000       0.00000000       56.7056351       1.59147799    
   3.02249994E-02   1.90476000      -0.00000000       56.7056351       1.59147799    
 -0.150970995       1.89900804      -0.00000000       85.5681839      -1.58444834    
  -9.06440020E-02   1.90284204      -0.00000000       85.5681839      -1.58444834    
   0.00000000       0.00000000       0.00000000       85.5681839      -1.58444834    
 -0.211146995       1.89326203      -0.00000000       85.5681839      -1.58444834    
   0.00000000       0.00000000       0.00000000       14.4862614      -1.65167999    
  -9.06440020E-02   1.90284204      -0.00000000       14.4862614      -1.65167999    
  -3.02249994E-02   1.90476000      -0.00000000       14.4862614      -1.65167999    
   3.02249994E-02   1.90476000      -0.00000000       14.4862614      -1.65167999    
 -0.271109998       1.88560998      -0.00000000       157.311142      -1.57820761    
 -0.211146995       1.89326203      -0.00000000       157.311142      -1.57820761    
   0.00000000       0.00000000       0.00000000       157.311142      -1.57820761    
 -0.330799997       1.87605906      -0.00000000       157.311142      -1.57820761    
 -0.507632971       1.83611906      -0.00000000       306.063446      -1.57459164    
 -0.449120998       1.85130095      -0.00000000       306.063446      -1.57459164    
   0.00000000       0.00000000       0.00000000       306.063446      -1.57459164    
 -0.565632999       1.81908906      -0.00000000       306.063446      -1.57459164    
   0.00000000       0.00000000       0.00000000       230.743088      -1.57583940    
 -0.449120998       1.85130095      -0.00000000       230.743088      -1.57583940    
 -0.390157014       1.86461902      -0.00000000       230.743088      -1.57583940    
 -0.330799997       1.87605906      -0.00000000       230.743088      -1.57583940    
 -0.623063982       1.80022705      -0.00000000       383.754974      -1.57381809    
 -0.565632999       1.81908906      -0.00000000       383.754974      -1.57381809    
   0.00000000       0.00000000       0.00000000       383.754974      -1.57381809    
 -0.679867983       1.77955198      -0.00000000       383.754974      -1.57381809    
 -0.845947027       1.70686805      -0.00000000       549.635681      -1.57289994    
 -0.791365981       1.73284900      -0.00000000       549.635681      -1.57289994    
   0.00000000       0.00000000       0.00000000       549.635681      -1.57289994    
 -0.899676025       1.67916906      -0.00000000       549.635681      -1.57289994    
   0.00000000       0.00000000       0.00000000       464.882111      -1.57328689    
 -0.791365981       1.73284900      -0.00000000       464.882111      -1.57328689    
 -0.735987008       1.75708497      -0.00000000       464.882111      -1.57328689    
 -0.679867983       1.77955198      -0.00000000       464.882111      -1.57328689    
 -0.952499986       1.64977801      -0.00000000       637.942810      -1.57260668    
 -0.899676025       1.67916906      -0.00000000       637.942810      -1.57260668    
   0.00000000       0.00000000       0.00000000       637.942810      -1.57260668    
  -1.00436401       1.61872697      -0.00000000       637.942810      -1.57260668    
  -1.15368605       1.51592600      -0.00000000       819.896301      -1.57220244    
  -1.10500801       1.55176699      -0.00000000       819.896301      -1.57220244    
   0.00000000       0.00000000       0.00000000       819.896301      -1.57220244    
  -1.20120299       1.47855902      -0.00000000       819.896301      -1.57220244    
   0.00000000       0.00000000       0.00000000       728.569824      -1.57237995    
  -1.10500801       1.55176699      -0.00000000       728.569824      -1.57237995    
  -1.05521798       1.58604598      -0.00000000       728.569824      -1.57237995    
  -1.00436401       1.61872697      -0.00000000       728.569824      -1.57237995    
  -1.24750996       1.43970299      -0.00000000       906.796753      -1.57206678    
  -1.20120299       1.47855902      -0.00000000       906.796753      -1.57206678    
   0.00000000       0.00000000       0.00000000       906.796753      -1.57206678    
  -1.29255998       1.39939702      -0.00000000       906.796753      -1.57206678    
  -1.41972899       1.27019501      -0.00000000       989.217163      -1.57195687    
  -1.37871301       1.31459999      -0.00000000       989.217163      -1.57195687    
   0.00000000       0.00000000       0.00000000       989.217163      -1.57195687    
  -1.45931494       1.22450995      -0.00000000       989.217163      -1.57195687    
   0.00000000       0.00000000       0.00000000       970.999512      -1.57198143    
  -1.37871301       1.31459999      -0.00000000       970.999512      -1.57198143    
  -1.33631003       1.35768199      -0.00000000       970.999512      -1.57198143    
  -1.29255998       1.39939702      -0.00000000       970.999512      -1.57198143    
  -1.49743104       1.17759299      -0.00000000       984.305359      -1.57195938    
  -1.45931494       1.22450995      -0.00000000       984.305359      -1.57195938    
   0.00000000       0.00000000       0.00000000       984.305359      -1.57195938    
  -1.53403997       1.12949002      -0.00000000       984.305359      -1.57195938    
  -1.63445795      0.978555024      -0.00000000       967.557068      -1.57197320    
  -1.60258806       1.02992105      -0.00000000       967.557068      -1.57197320    
   0.00000000       0.00000000       0.00000000       967.557068      -1.57197320    
  -1.66468298      0.926204979      -0.00000000       967.557068      -1.57197320    
   0.00000000       0.00000000       0.00000000       975.454895      -1.57196665    
  -1.60258806       1.02992105      -0.00000000       975.454895      -1.57196665    
  -1.56910396       1.08024895      -0.00000000       975.454895      -1.57196665    
  -1.53403997       1.12949002      -0.00000000       975.454895      -1.57196665    
  -1.69323206      0.872922003      -0.00000000       961.917480      -1.57197762    
  -1.66468298      0.926204979      -0.00000000       961.917480      -1.57197762    
   0.00000000       0.00000000       0.00000000       961.917480      -1.57197762    
  -1.72007501      0.818759024      -0.00000000       961.917480      -1.57197762    
  -1.79011405      0.651548028      -0.00000000       959.839111      -1.57197607    
  -1.76854098      0.708016992      -0.00000000       959.839111      -1.57197607    
   0.00000000       0.00000000       0.00000000       959.839111      -1.57197607    
  -1.80988598      0.594424009      -0.00000000       959.839111      -1.57197607    
   0.00000000       0.00000000       0.00000000       959.472473      -1.57197833    
  -1.76854098      0.708016992      -0.00000000       959.472473      -1.57197833    
  -1.74518704      0.763773024      -0.00000000       959.472473      -1.57197833    
  -1.72007501      0.818759024      -0.00000000       959.472473      -1.57197833    
  -1.82783401      0.536701024      -0.00000000       962.219788      -1.57197165    
  -1.80988598      0.594424009      -0.00000000       962.219788      -1.57197165    
   0.00000000       0.00000000       0.00000000       962.219788      -1.57197165    
  -1.84394205      0.478437006      -0.00000000       962.219788      -1.57197165    
  -1.88107097      0.300992996      -0.00000000       968.698364      -1.57196188    
  -1.87057400      0.360523999      -0.00000000       968.698364      -1.57196188    
   0.00000000       0.00000000       0.00000000       968.698364      -1.57196188    
  -1.88967395      0.241159007      -0.00000000       968.698364      -1.57196188    
   0.00000000       0.00000000       0.00000000       965.370911      -1.57196677    
  -1.87057400      0.360523999      -0.00000000       965.370911      -1.57196677    
  -1.85819399      0.419692010      -0.00000000       965.370911      -1.57196677    
  -1.84394205      0.478437006      -0.00000000       965.370911      -1.57196677    
  -1.89637399      0.181081995      -0.00000000       971.366882      -1.57195818    
  -1.88967395      0.241159007      -0.00000000       971.366882      -1.57195818    
   0.00000000       0.00000000       0.00000000       971.366882      -1.57195818    
  -1.90116501      0.120823003      -0.00000000       971.366882      -1.57195818    
  -1.90404105      -6.04420006E-02  -0.00000000       973.031433      -1.57195592    
  -1.90499997       0.00000000      -0.00000000       973.031433      -1.57195592    
   0.00000000       0.00000000       0.00000000       973.031433      -1.57195592    
  -1.90116501     -0.120823003      -0.00000000       973.031433      -1.57195592    
   0.00000000       0.00000000       0.00000000       972.835938      -1.57195604    
  -1.90499997       0.00000000      -0.00000000       972.835938      -1.57195604    
  -1.90404105       6.04420006E-02  -0.00000000       972.835938      -1.57195604    
  -1.90116501      0.120823003      -0.00000000       972.835938      -1.57195604    
  -1.89637399     -0.181081995      -0.00000000       972.052551      -1.57195735    
  -1.90116501     -0.120823003      -0.00000000       972.052551      -1.57195735    
   0.00000000       0.00000000       0.00000000       972.052551      -1.57195735    
  -1.88967395     -0.241159007      -0.00000000       972.052551      -1.57195735    
  -1.85819399     -0.419692010      -0.00000000       967.622864      -1.57196403    
  -1.87057400     -0.360523999      -0.00000000       967.622864      -1.57196403    
   0.00000000       0.00000000       0.00000000       967.622864      -1.57196403    
  -1.84394205     -0.478437006      -0.00000000       967.622864      -1.57196403    
   0.00000000       0.00000000       0.00000000       969.943665      -1.57196045    
  -1.87057400     -0.360523999      -0.00000000       969.943665      -1.57196045    
  -1.88107097     -0.300992996      -0.00000000       969.943665      -1.57196045    
  -1.88967395     -0.241159007      -0.00000000       969.943665      -1.57196045    
  -1.82783401     -0.536701024      -0.00000000       965.594910      -1.57196772    
  -1.84394205     -0.478437006      -0.00000000       965.594910      -1.57196772    
   0.00000000       0.00000000       0.00000000       965.594910      -1.57196772    
  -1.80988598     -0.594424009      -0.00000000       965.594910      -1.57196772    
  -1.74518704     -0.763773024      -0.00000000       966.093567      -1.57197058    
  -1.76854098     -0.708016992      -0.00000000       966.093567      -1.57197058    
   0.00000000       0.00000000       0.00000000       966.093567      -1.57197058    
  -1.72007501     -0.818759024      -0.00000000       966.093567      -1.57197058    
   0.00000000       0.00000000       0.00000000       964.679565      -1.57197022    
  -1.76854098     -0.708016992      -0.00000000       964.679565      -1.57197022    
  -1.79011405     -0.651548028      -0.00000000       964.679565      -1.57197022    
  -1.80988598     -0.594424009      -0.00000000       964.679565      -1.57197022    
  -1.69323206     -0.872922003      -0.00000000       969.911987      -1.57196796    
  -1.72007501     -0.818759024      -0.00000000       969.911987      -1.57196796    
   0.00000000       0.00000000       0.00000000       969.911987      -1.57196796    
  -1.66468298     -0.926204979      -0.00000000       969.911987      -1.57196796    
  -1.56910396      -1.08024895      -0.00000000       983.460815      -1.57195735    
  -1.60258806      -1.02992105      -0.00000000       983.460815      -1.57195735    
   0.00000000       0.00000000       0.00000000       983.460815      -1.57195735    
  -1.53403997      -1.12949002      -0.00000000       983.460815      -1.57195735    
   0.00000000       0.00000000       0.00000000       976.064575      -1.57196319    
  -1.60258806      -1.02992105      -0.00000000       976.064575      -1.57196319    
  -1.63445795     -0.978555024      -0.00000000       976.064575      -1.57196319    
  -1.66468298     -0.926204979      -0.00000000       976.064575      -1.57196319    
  -1.49743104      -1.17759299      -0.00000000       990.578918      -1.57195210    
  -1.53403997      -1.12949002      -0.00000000       990.578918      -1.57195210    
   0.00000000       0.00000000       0.00000000       990.578918      -1.57195210    
  -1.45931494      -1.22450995      -0.00000000       990.578918      -1.57195210    
  -1.33631003      -1.35768199      -0.00000000       971.332153      -1.57198095    
  -1.37871301      -1.31459999      -0.00000000       971.332153      -1.57198095    
   0.00000000       0.00000000       0.00000000       971.332153      -1.57198095    
  -1.29255998      -1.39939702      -0.00000000       971.332153      -1.57198095    
   0.00000000       0.00000000       0.00000000       992.540100      -1.57195306    
  -1.37871301      -1.31459999      -0.00000000       992.540100      -1.57195306    
  -1.41972899      -1.27019501      -0.00000000       992.540100      -1.57195306    
  -1.45931494      -1.22450995      -0.00000000       992.540100      -1.57195306    
  -1.24750996      -1.43970299      -0.00000000       903.767090      -1.57207108    
  -1.29255998      -1.39939702      -0.00000000       903.767090      -1.57207108    
   0.00000000       0.00000000       0.00000000       903.767090      -1.57207108    
  -1.20120299      -1.47855902      -0.00000000       903.767090      -1.57207108    
  -1.05521798      -1.58604598      -0.00000000       719.783630      -1.57239914    
  -1.10500801      -1.55176699      -0.00000000       719.783630      -1.57239914    
   0.00000000       0.00000000       0.00000000       719.783630      -1.57239914    
  -1.00436401      -1.61872697      -0.00000000       719.783630      -1.57239914    
   0.00000000       0.00000000       0.00000000       813.414001      -1.57221353    
  -1.10500801      -1.55176699      -0.00000000       813.414001      -1.57221353    
  -1.15368605      -1.51592600      -0.00000000       813.414001      -1.57221353    
  -1.20120299      -1.47855902      -0.00000000       813.414001      -1.57221353    
 -0.952499986      -1.64977801      -0.00000000       627.991821      -1.57263517    
  -1.00436401      -1.61872697      -0.00000000       627.991821      -1.57263517    
   0.00000000       0.00000000       0.00000000       627.991821      -1.57263517    
 -0.899676025      -1.67916906      -0.00000000       627.991821      -1.57263517    
 -0.735987008      -1.75708497      -0.00000000       455.309052      -1.57333887    
 -0.791365981      -1.73284900      -0.00000000       455.309052      -1.57333887    
   0.00000000       0.00000000       0.00000000       455.309052      -1.57333887    
 -0.679867983      -1.77955198      -0.00000000       455.309052      -1.57333887    
   0.00000000       0.00000000       0.00000000       539.466125      -1.57293952    
 -0.791365981      -1.73284900      -0.00000000       539.466125      -1.57293952    
 -0.845947027      -1.70686805      -0.00000000       539.466125      -1.57293952    
 -0.899676025      -1.67916906      -0.00000000       539.466125      -1.57293952    
 -0.623063982      -1.80022705      -0.00000000       375.039032      -1.57388806    
 -0.679867983      -1.77955198      -0.00000000       375.039032      -1.57388806    
   0.00000000       0.00000000       0.00000000       375.039032      -1.57388806    
 -0.565632999      -1.81908906      -0.00000000       375.039032      -1.57388806    
 -0.390157014      -1.86461902      -0.00000000       223.256088      -1.57600832    
 -0.449120998      -1.85130095      -0.00000000       223.256088      -1.57600832    
   0.00000000       0.00000000       0.00000000       223.256088      -1.57600832    
 -0.330799997      -1.87605906      -0.00000000       223.256088      -1.57600832    
   0.00000000       0.00000000       0.00000000       297.947205      -1.57469463    
 -0.449120998      -1.85130095      -0.00000000       297.947205      -1.57469463    
 -0.507632971      -1.83611906      -0.00000000       297.947205      -1.57469463    
 -0.565632999      -1.81908906      -0.00000000       297.947205      -1.57469463    
 -0.271109998      -1.88560998      -0.00000000       150.519012      -1.57854164    
 -0.330799997      -1.87605906      -0.00000000       150.519012      -1.57854164    
   0.00000000       0.00000000       0.00000000       150.519012      -1.57854164    
 -0.211146995      -1.89326203      -0.00000000       150.519012      -1.57854164    
  -3.02249994E-02  -1.90476000      -0.00000000       7.88144636      -1.71983910    
  -9.06440020E-02  -1.90284204      -0.00000000       7.88144636      -1.71983910    
   0.00000000       0.00000000       0.00000000       7.88144636      -1.71983910    
   3.02249994E-02  -1.90476000      -0.00000000       7.88144636      -1.71983910    
   0.00000000       0.00000000       0.00000000       79.0467148      -1.58557379    
  -9.06440020E-02  -1.90284204      -0.00000000       79.0467148      -1.58557379    
 -0.150970995      -1.89900804      -0.00000000       79.0467148      -1.58557379    
 -0.211146995      -1.89326203      -0.00000000       79.0467148      -1.58557379    
   9.06440020E-02  -1.90284204      -0.00000000       63.3821068       1.58929908    
   3.02249994E-02  -1.90476000      -0.00000000       63.3821068       1.58929908    
   0.00000000       0.00000000       0.00000000       63.3821068       1.58929908    
  0.150970995      -1.89900804      -0.00000000       63.3821068       1.58929908    
  0.330799997      -1.87605906      -0.00000000       206.731735       1.57648993    
  0.271109998      -1.88560998      -0.00000000       206.731735       1.57648993    
   0.00000000       0.00000000       0.00000000       206.731735       1.57648993    
  0.390157014      -1.86461902      -0.00000000       206.731735       1.57648993    
   0.00000000       0.00000000       0.00000000       134.690094       1.57951975    
  0.271109998      -1.88560998      -0.00000000       134.690094       1.57951975    
  0.211146995      -1.89326203      -0.00000000       134.690094       1.57951975    
  0.150970995      -1.89900804      -0.00000000       134.690094       1.57951975    
  0.449120998      -1.85130095      -0.00000000       280.516022       1.57499969    
  0.390157014      -1.86461902      -0.00000000       280.516022       1.57499969    
   0.00000000       0.00000000       0.00000000       280.516022       1.57499969    
  0.507632971      -1.83611906      -0.00000000       280.516022       1.57499969    
  0.679867983      -1.77955198      -0.00000000       434.360443       1.57351935    
  0.623063982      -1.80022705      -0.00000000       434.360443       1.57351935    
   0.00000000       0.00000000       0.00000000       434.360443       1.57351935    
  0.735987008      -1.75708497      -0.00000000       434.360443       1.57351935    
   0.00000000       0.00000000       0.00000000       356.225098       1.57411170    
  0.623063982      -1.80022705      -0.00000000       356.225098       1.57411170    
  0.565632999      -1.81908906      -0.00000000       356.225098       1.57411170    
  0.507632971      -1.83611906      -0.00000000       356.225098       1.57411170    
  0.791365981      -1.73284900      -0.00000000       516.010010       1.57309115    
  0.735987008      -1.75708497      -0.00000000       516.010010       1.57309115    
   0.00000000       0.00000000       0.00000000       516.010010       1.57309115    
  0.845947027      -1.70686805      -0.00000000       516.010010       1.57309115    
   1.00436401      -1.61872697      -0.00000000       690.354065       1.57251441    
  0.952499986      -1.64977801      -0.00000000       690.354065       1.57251441    
   0.00000000       0.00000000       0.00000000       690.354065       1.57251441    
   1.05521798      -1.58604598      -0.00000000       690.354065       1.57251441    
   0.00000000       0.00000000       0.00000000       601.354431       1.57276738    
  0.952499986      -1.64977801      -0.00000000       601.354431       1.57276738    
  0.899676025      -1.67916906      -0.00000000       601.354431       1.57276738    
  0.845947027      -1.70686805      -0.00000000       601.354431       1.57276738    
   1.10500801      -1.55176699      -0.00000000       781.716858       1.57231414    
   1.05521798      -1.58604598      -0.00000000       781.716858       1.57231414    
   0.00000000       0.00000000       0.00000000       781.716858       1.57231414    
   1.15368605      -1.51592600      -0.00000000       781.716858       1.57231414    
   1.29255998      -1.39939702      -0.00000000       961.304932       1.57203066    
   1.24750996      -1.43970299      -0.00000000       961.304932       1.57203066    
   0.00000000       0.00000000       0.00000000       961.304932       1.57203066    
   1.33631003      -1.35768199      -0.00000000       961.304932       1.57203066    
   0.00000000       0.00000000       0.00000000       873.802917       1.57215428    
   1.24750996      -1.43970299      -0.00000000       873.802917       1.57215428    
   1.20120299      -1.47855902      -0.00000000       873.802917       1.57215428    