 VARIABLES="X" "Y" "Z" "abs(p) (Pa)" "angle(p) (rad)"
ZONE N=    802,E =     800, F=FEPOINT, ET=QUADRILATERAL
   1.90499997       0.00000000      -0.00000000       9.20261669      -1.62019241    
   1.90404105      -6.04420006E-02  -0.00000000       9.20261669      -1.62019241    
   0.00000000       0.00000000       0.00000000       9.20261669      -1.62019241    
   1.90404105       6.04420006E-02  -0.00000000       9.20261669      -1.62019241    
   1.88967395      0.241159007      -0.00000000       492.164429      -1.55909467    
   1.89637399      0.181081995      -0.00000000       492.164429      -1.55909467    
   0.00000000       0.00000000       0.00000000       492.164429      -1.55909467    
   1.88107097      0.300992996      -0.00000000       492.164429      -1.55909467    
   0.00000000       0.00000000       0.00000000       249.661377      -1.56001437    
   1.89637399      0.181081995      -0.00000000       249.661377      -1.56001437    
   1.90116501      0.120823003      -0.00000000       249.661377      -1.56001437    
   1.90404105       6.04420006E-02  -0.00000000       249.661377      -1.56001437    
   1.87057400      0.360523999      -0.00000000       738.340027      -1.55906773    
   1.88107097      0.300992996      -0.00000000       738.340027      -1.55906773    
   0.00000000       0.00000000       0.00000000       738.340027      -1.55906773    
   1.85819399      0.419692010      -0.00000000       738.340027      -1.55906773    
   1.80988598      0.594424009      -0.00000000       1252.37573      -1.56002104    
   1.82783401      0.536701024      -0.00000000       1252.37573      -1.56002104    
   0.00000000       0.00000000       0.00000000       1252.37573      -1.56002104    
   1.79011405      0.651548028      -0.00000000       1252.37573      -1.56002104    
   0.00000000       0.00000000       0.00000000       990.255005      -1.55938375    
   1.82783401      0.536701024      -0.00000000       990.255005      -1.55938375    
   1.84394205      0.478437006      -0.00000000       990.255005      -1.55938375    
   1.85819399      0.419692010      -0.00000000       990.255005      -1.55938375    
   1.76854098      0.708016992      -0.00000000       1527.80127      -1.56091464    
   1.79011405      0.651548028      -0.00000000       1527.80127      -1.56091464    
   0.00000000       0.00000000       0.00000000       1527.80127      -1.56091464    
   1.74518704      0.763773024      -0.00000000       1527.80127      -1.56091464    
   1.66468298      0.926204979      -0.00000000       2122.35376      -1.56325686    
   1.69323206      0.872922003      -0.00000000       2122.35376      -1.56325686    
   0.00000000       0.00000000       0.00000000       2122.35376      -1.56325686    
   1.63445795      0.978555024      -0.00000000       2122.35376      -1.56325686    
   0.00000000       0.00000000       0.00000000       1817.63782      -1.56200743    
   1.69323206      0.872922003      -0.00000000       1817.63782      -1.56200743    
   1.72007501      0.818759024      -0.00000000       1817.63782      -1.56200743    
   1.74518704      0.763773024      -0.00000000       1817.63782      -1.56200743    
   1.60258806       1.02992105      -0.00000000       2439.30005      -1.56457698    
   1.63445795      0.978555024      -0.00000000       2439.30005      -1.56457698    
   0.00000000       0.00000000       0.00000000       2439.30005      -1.56457698    
   1.56910396       1.08024895      -0.00000000       2439.30005      -1.56457698    
   1.45931494       1.22450995      -0.00000000       3062.72437      -1.56685019    
   1.49743104       1.17759299      -0.00000000       3062.72437      -1.56685019    
   0.00000000       0.00000000       0.00000000       3062.72437      -1.56685019    
   1.41972899       1.27019501      -0.00000000       3062.72437      -1.56685019    
   0.00000000       0.00000000       0.00000000       2759.54199      -1.56584525    
   1.49743104       1.17759299      -0.00000000       2759.54199      -1.56584525    
   1.53403997       1.12949002      -0.00000000       2759.54199      -1.56584525    
   1.56910396       1.08024895      -0.00000000       2759.54199      -1.56584525    
   1.37871301       1.31459999      -0.00000000       3281.78149      -1.56685698    
   1.41972899       1.27019501      -0.00000000       3281.78149      -1.56685698    
   0.00000000       0.00000000       0.00000000       3281.78149      -1.56685698    
   1.33631003       1.35768199      -0.00000000       3281.78149      -1.56685698    
   1.20120299       1.47855902      -0.00000000       3296.41846      -1.56218052    
   1.24750996       1.43970299      -0.00000000       3296.41846      -1.56218052    
   0.00000000       0.00000000       0.00000000       3296.41846      -1.56218052    
   1.15368605       1.51592600      -0.00000000       3296.41846      -1.56218052    
   0.00000000       0.00000000       0.00000000       3333.07690      -1.56497562    
   1.24750996       1.43970299      -0.00000000       3333.07690      -1.56497562    
   1.29255998       1.39939702      -0.00000000       3333.07690      -1.56497562    
   1.33631003       1.35768199      -0.00000000       3333.07690      -1.56497562    
   1.10500801       1.55176699      -0.00000000       3244.57397      -1.55933917    
   1.15368605       1.51592600      -0.00000000       3244.57397      -1.55933917    
   0.00000000       0.00000000       0.00000000       3244.57397      -1.55933917    
   1.05521798       1.58604598      -0.00000000       3244.57397      -1.55933917    
  0.899676025       1.67916906      -0.00000000       3166.18115      -1.55446243    
  0.952499986       1.64977801      -0.00000000       3166.18115      -1.55446243    
   0.00000000       0.00000000       0.00000000       3166.18115      -1.55446243    
  0.845947027       1.70686805      -0.00000000       3166.18115      -1.55446243    
   0.00000000       0.00000000       0.00000000       3198.90381      -1.55672562    
  0.952499986       1.64977801      -0.00000000       3198.90381      -1.55672562    
   1.00436401       1.61872697      -0.00000000       3198.90381      -1.55672562    
   1.05521798       1.58604598      -0.00000000       3198.90381      -1.55672562    
  0.791365981       1.73284900      -0.00000000       3148.97778      -1.55261993    
  0.845947027       1.70686805      -0.00000000       3148.97778      -1.55261993    
   0.00000000       0.00000000       0.00000000       3148.97778      -1.55261993    
  0.735987008       1.75708497      -0.00000000       3148.97778      -1.55261993    
  0.565632999       1.81908906      -0.00000000       3152.91846      -1.55014873    
  0.623063982       1.80022705      -0.00000000       3152.91846      -1.55014873    
   0.00000000       0.00000000       0.00000000       3152.91846      -1.55014873    
  0.507632971       1.83611906      -0.00000000       3152.91846      -1.55014873    
   0.00000000       0.00000000       0.00000000       3146.07520      -1.55120027    
  0.623063982       1.80022705      -0.00000000       3146.07520      -1.55120027    
  0.679867983       1.77955198      -0.00000000       3146.07520      -1.55120027    
  0.735987008       1.75708497      -0.00000000       3146.07520      -1.55120027    
  0.449120998       1.85130095      -0.00000000       3165.32617      -1.54941130    
  0.507632971       1.83611906      -0.00000000       3165.32617      -1.54941130    
   0.00000000       0.00000000       0.00000000       3165.32617      -1.54941130    
  0.390157014       1.86461902      -0.00000000       3165.32617      -1.54941130    
  0.211146995       1.89326203      -0.00000000       3192.12476      -1.54862857    
  0.271109998       1.88560998      -0.00000000       3192.12476      -1.54862857    
   0.00000000       0.00000000       0.00000000       3192.12476      -1.54862857    
  0.150970995       1.89900804      -0.00000000       3192.12476      -1.54862857    
   0.00000000       0.00000000       0.00000000       3178.83838      -1.54891229    
  0.271109998       1.88560998      -0.00000000       3178.83838      -1.54891229    
  0.330799997       1.87605906      -0.00000000       3178.83838      -1.54891229    
  0.390157014       1.86461902      -0.00000000       3178.83838      -1.54891229    
   9.06440020E-02   1.90284204      -0.00000000       3201.75122      -1.54850984    
  0.150970995       1.89900804      -0.00000000       3201.75122      -1.54850984    
   0.00000000       0.00000000       0.00000000       3201.75122      -1.54850984    
   3.02249994E-02   1.90476000      -0.00000000       3201.75122      -1.54850984    
 -0.150970995       1.89900804      -0.00000000       3205.25146      -1.54868960    
  -9.06440020E-02   1.90284204      -0.00000000       3205.25146      -1.54868960    
   0.00000000       0.00000000       0.00000000       3205.25146      -1.54868960    
 -0.211146995       1.89326203      -0.00000000       3205.25146      -1.54868960    
   0.00000000       0.00000000       0.00000000       3205.88965      -1.54852700    
  -9.06440020E-02   1.90284204      -0.00000000       3205.88965      -1.54852700    
  -3.02249994E-02   1.90476000      -0.00000000       3205.88965      -1.54852700    
   3.02249994E-02   1.90476000      -0.00000000       3205.88965      -1.54852700    
 -0.271109998       1.88560998      -0.00000000       3202.64941      -1.54903400    
 -0.211146995       1.89326203      -0.00000000       3202.64941      -1.54903400    
   0.00000000       0.00000000       0.00000000       3202.64941      -1.54903400    
 -0.330799997       1.87605906      -0.00000000       3202.64941      -1.54903400    
 -0.507632971       1.83611906      -0.00000000       3199.22998      -1.55039895    
 -0.449120998       1.85130095      -0.00000000       3199.22998      -1.55039895    
   0.00000000       0.00000000       0.00000000       3199.22998      -1.55039895    
 -0.565632999       1.81908906      -0.00000000       3199.22998      -1.55039895    
   0.00000000       0.00000000       0.00000000       3199.97144      -1.54959381    
 -0.449120998       1.85130095      -0.00000000       3199.97144      -1.54959381    
 -0.390157014       1.86461902      -0.00000000       3199.97144      -1.54959381    
 -0.330799997       1.87605906      -0.00000000       3199.97144      -1.54959381    
 -0.623063982       1.80022705      -0.00000000       3205.76514      -1.55152750    
 -0.565632999       1.81908906      -0.00000000       3205.76514      -1.55152750    
   0.00000000       0.00000000       0.00000000       3205.76514      -1.55152750    
 -0.679867983       1.77955198      -0.00000000       3205.76514      -1.55152750    
 -0.845947027       1.70686805      -0.00000000       3254.52417      -1.55490530    
 -0.791365981       1.73284900      -0.00000000       3254.52417      -1.55490530    
   0.00000000       0.00000000       0.00000000       3254.52417      -1.55490530    
 -0.899676025       1.67916906      -0.00000000       3254.52417      -1.55490530    
   0.00000000       0.00000000       0.00000000       3223.59375      -1.55302525    
 -0.791365981       1.73284900      -0.00000000       3223.59375      -1.55302525    
 -0.735987008       1.75708497      -0.00000000       3223.59375      -1.55302525    
 -0.679867983       1.77955198      -0.00000000       3223.59375      -1.55302525    
 -0.952499986       1.64977801      -0.00000000       3299.19995      -1.55715942    
 -0.899676025       1.67916906      -0.00000000       3299.19995      -1.55715942    
   0.00000000       0.00000000       0.00000000       3299.19995      -1.55715942    
  -1.00436401       1.61872697      -0.00000000       3299.19995      -1.55715942    
  -1.15368605       1.51592600      -0.00000000       3410.25513      -1.56242871    
  -1.10500801       1.55176699      -0.00000000       3410.25513      -1.56242871    
   0.00000000       0.00000000       0.00000000       3410.25513      -1.56242871    
  -1.20120299       1.47855902      -0.00000000       3410.25513      -1.56242871    
   0.00000000       0.00000000       0.00000000       3354.23828      -1.55971253    
  -1.10500801       1.55176699      -0.00000000       3354.23828      -1.55971253    
  -1.05521798       1.58604598      -0.00000000       3354.23828      -1.55971253    
  -1.00436401       1.61872697      -0.00000000       3354.23828      -1.55971253    
  -1.24750996       1.43970299      -0.00000000       3445.95776      -1.56506634    
  -1.20120299       1.47855902      -0.00000000       3445.95776      -1.56506634    
   0.00000000       0.00000000       0.00000000       3445.95776      -1.56506634    
  -1.29255998       1.39939702      -0.00000000       3445.95776      -1.56506634    
  -1.41972899       1.27019501      -0.00000000       3165.46899      -1.56673622    
  -1.37871301       1.31459999      -0.00000000       3165.46899      -1.56673622    
   0.00000000       0.00000000       0.00000000       3165.46899      -1.56673622    
  -1.45931494       1.22450995      -0.00000000       3165.46899      -1.56673622    
   0.00000000       0.00000000       0.00000000       3392.54053      -1.56684232    
  -1.37871301       1.31459999      -0.00000000       3392.54053      -1.56684232    
  -1.33631003       1.35768199      -0.00000000       3392.54053      -1.56684232    
  -1.29255998       1.39939702      -0.00000000       3392.54053      -1.56684232    
  -1.49743104       1.17759299      -0.00000000       2849.45288      -1.56557178    
  -1.45931494       1.22450995      -0.00000000       2849.45288      -1.56557178    
   0.00000000       0.00000000       0.00000000       2849.45288      -1.56557178    
  -1.53403997       1.12949002      -0.00000000       2849.45288      -1.56557178    
  -1.63445795      0.978555024      -0.00000000       2199.17480      -1.56267893    
  -1.60258806       1.02992105      -0.00000000       2199.17480      -1.56267893    
   0.00000000       0.00000000       0.00000000       2199.17480      -1.56267893    
  -1.66468298      0.926204979      -0.00000000       2199.17480      -1.56267893    
   0.00000000       0.00000000       0.00000000       2519.98877      -1.56414068    
  -1.60258806       1.02992105      -0.00000000       2519.98877      -1.56414068    
  -1.56910396       1.08024895      -0.00000000       2519.98877      -1.56414068    
  -1.53403997       1.12949002      -0.00000000       2519.98877      -1.56414068    
  -1.69323206      0.872922003      -0.00000000       1894.19690      -1.56131077    
  -1.66468298      0.926204979      -0.00000000       1894.19690      -1.56131077    
   0.00000000       0.00000000       0.00000000       1894.19690      -1.56131077    
  -1.72007501      0.818759024      -0.00000000       1894.19690      -1.56131077    
  -1.79011405      0.651548028      -0.00000000       1335.99231      -1.55917287    
  -1.76854098      0.708016992      -0.00000000       1335.99231      -1.55917287    
   0.00000000       0.00000000       0.00000000       1335.99231      -1.55917287    
  -1.80988598      0.594424009      -0.00000000       1335.99231      -1.55917287    
   0.00000000       0.00000000       0.00000000       1606.70166      -1.56012034    
  -1.76854098      0.708016992      -0.00000000       1606.70166      -1.56012034    
  -1.74518704      0.763773024      -0.00000000       1606.70166      -1.56012034    
  -1.72007501      0.818759024      -0.00000000       1606.70166      -1.56012034    
  -1.82783401      0.536701024      -0.00000000       1078.39978      -1.55847251    
  -1.80988598      0.594424009      -0.00000000       1078.39978      -1.55847251    
   0.00000000       0.00000000       0.00000000       1078.39978      -1.55847251    
  -1.84394205      0.478437006      -0.00000000       1078.39978      -1.55847251    
  -1.88107097      0.300992996      -0.00000000       586.364685      -1.55770421    
  -1.87057400      0.360523999      -0.00000000       586.364685      -1.55770421    
   0.00000000       0.00000000       0.00000000       586.364685      -1.55770421    
  -1.88967395      0.241159007      -0.00000000       586.364685      -1.55770421    
   0.00000000       0.00000000       0.00000000       829.710388      -1.55799580    
  -1.87057400      0.360523999      -0.00000000       829.710388      -1.55799580    
  -1.85819399      0.419692010      -0.00000000       829.710388      -1.55799580    
  -1.84394205      0.478437006      -0.00000000       829.710388      -1.55799580    
  -1.89637399      0.181081995      -0.00000000       346.510651      -1.55767286    
  -1.88967395      0.241159007      -0.00000000       346.510651      -1.55767286    
   0.00000000       0.00000000       0.00000000       346.510651      -1.55767286    
  -1.90116501      0.120823003      -0.00000000       346.510651      -1.55767286    
  -1.90404105      -6.04420006E-02  -0.00000000       131.451538       1.58484018    
  -1.90499997       0.00000000      -0.00000000       131.451538       1.58484018    
   0.00000000       0.00000000       0.00000000       131.451538       1.58484018    
  -1.90116501     -0.120823003      -0.00000000       131.451538       1.58484018    
   0.00000000       0.00000000       0.00000000       107.691338      -1.55829489    
  -1.90499997       0.00000000      -0.00000000       107.691338      -1.55829489    
  -1.90404105       6.04420006E-02  -0.00000000       107.691338      -1.55829489    
  -1.90116501      0.120823003      -0.00000000       107.691338      -1.55829489    
  -1.89637399     -0.181081995      -0.00000000       370.234222       1.58441889    
  -1.90116501     -0.120823003      -0.00000000       370.234222       1.58441889    
   0.00000000       0.00000000       0.00000000       370.234222       1.58441889    
  -1.88967395     -0.241159007      -0.00000000       370.234222       1.58441889    
  -1.85819399     -0.419692010      -0.00000000       855.386230       1.58372164    
  -1.87057400     -0.360523999      -0.00000000       855.386230       1.58372164    
   0.00000000       0.00000000       0.00000000       855.386230       1.58372164    
  -1.84394205     -0.478437006      -0.00000000       855.386230       1.58372164    
   0.00000000       0.00000000       0.00000000       610.745483       1.58414149    
  -1.87057400     -0.360523999      -0.00000000       610.745483       1.58414149    
  -1.88107097     -0.300992996      -0.00000000       610.745483       1.58414149    
  -1.88967395     -0.241159007      -0.00000000       610.745483       1.58414149    
  -1.82783401     -0.536701024      -0.00000000       1105.86780       1.58316016    
  -1.84394205     -0.478437006      -0.00000000       1105.86780       1.58316016    
   0.00000000       0.00000000       0.00000000       1105.86780       1.58316016    
  -1.80988598     -0.594424009      -0.00000000       1105.86780       1.58316016    
  -1.74518704     -0.763773024      -0.00000000       1640.39160       1.58137679    
  -1.76854098     -0.708016992      -0.00000000       1640.39160       1.58137679    
   0.00000000       0.00000000       0.00000000       1640.39160       1.58137679    
  -1.72007501     -0.818759024      -0.00000000       1640.39160       1.58137679    
   0.00000000       0.00000000       0.00000000       1366.37537       1.58238077    
  -1.76854098     -0.708016992      -0.00000000       1366.37537       1.58238077    
  -1.79011405     -0.651548028      -0.00000000       1366.37537       1.58238077    
  -1.80988598     -0.594424009      -0.00000000       1366.37537       1.58238077    
  -1.69323206     -0.872922003      -0.00000000       1929.04199       1.58019173    
  -1.72007501     -0.818759024      -0.00000000       1929.04199       1.58019173    
   0.00000000       0.00000000       0.00000000       1929.04199       1.58019173    
  -1.66468298     -0.926204979      -0.00000000       1929.04199       1.58019173    
  -1.56910396      -1.08024895      -0.00000000       2551.69702       1.57742155    
  -1.60258806      -1.02992105      -0.00000000       2551.69702       1.57742155    
   0.00000000       0.00000000       0.00000000       2551.69702       1.57742155    
  -1.53403997      -1.12949002      -0.00000000       2551.69702       1.57742155    
   0.00000000       0.00000000       0.00000000       2233.75244       1.57884014    
  -1.60258806      -1.02992105      -0.00000000       2233.75244       1.57884014    
  -1.63445795     -0.978555024      -0.00000000       2233.75244       1.57884014    
  -1.66468298     -0.926204979      -0.00000000       2233.75244       1.57884014    
  -1.49743104      -1.17759299      -0.00000000       2873.22168       1.57606184    
  -1.53403997      -1.12949002      -0.00000000       2873.22168       1.57606184    
   0.00000000       0.00000000       0.00000000       2873.22168       1.57606184    
  -1.45931494      -1.22450995      -0.00000000       2873.22168       1.57606184    
  -1.33631003      -1.35768199      -0.00000000       3393.67944       1.57490695    
  -1.37871301      -1.31459999      -0.00000000       3393.67944       1.57490695    
   0.00000000       0.00000000       0.00000000       3393.67944       1.57490695    
  -1.29255998      -1.39939702      -0.00000000       3393.67944       1.57490695    
   0.00000000       0.00000000       0.00000000       3177.22632       1.57497597    
  -1.37871301      -1.31459999      -0.00000000       3177.22632       1.57497597    
  -1.41972899      -1.27019501      -0.00000000       3177.22632       1.57497597    
  -1.45931494      -1.22450995      -0.00000000       3177.22632       1.57497597    
  -1.24750996      -1.43970299      -0.00000000       3436.88940       1.57674599    
  -1.29255998      -1.39939702      -0.00000000       3436.88940       1.57674599    
   0.00000000       0.00000000       0.00000000       3436.88940       1.57674599    
  -1.20120299      -1.47855902      -0.00000000       3436.88940       1.57674599    
  -1.05521798      -1.58604598      -0.00000000       3328.21924       1.58231854    
  -1.10500801      -1.55176699      -0.00000000       3328.21924       1.58231854    
   0.00000000       0.00000000       0.00000000       3328.21924       1.58231854    
  -1.00436401      -1.61872697      -0.00000000       3328.21924       1.58231854    
   0.00000000       0.00000000       0.00000000       3390.19556       1.57950366    
  -1.10500801      -1.55176699      -0.00000000       3390.19556       1.57950366    
  -1.15368605      -1.51592600      -0.00000000       3390.19556       1.57950366    
  -1.20120299      -1.47855902      -0.00000000       3390.19556       1.57950366    
 -0.952499986      -1.64977801      -0.00000000       3272.67114       1.58491707    
  -1.00436401      -1.61872697      -0.00000000       3272.67114       1.58491707    
   0.00000000       0.00000000       0.00000000       3272.67114       1.58491707    
 -0.899676025      -1.67916906      -0.00000000       3272.67114       1.58491707    
 -0.735987008      -1.75708497      -0.00000000       3204.12305       1.58903039    
 -0.791365981      -1.73284900      -0.00000000       3204.12305       1.58903039    
   0.00000000       0.00000000       0.00000000       3204.12305       1.58903039    
 -0.679867983      -1.77955198      -0.00000000       3204.12305       1.58903039    
   0.00000000       0.00000000       0.00000000       3230.42554       1.58717906    
 -0.791365981      -1.73284900      -0.00000000       3230.42554       1.58717906    
 -0.845947027      -1.70686805      -0.00000000       3230.42554       1.58717906    
 -0.899676025      -1.67916906      -0.00000000       3230.42554       1.58717906    
 -0.623063982      -1.80022705      -0.00000000       3192.48901       1.59046483    
 -0.679867983      -1.77955198      -0.00000000       3192.48901       1.59046483    
   0.00000000       0.00000000       0.00000000       3192.48901       1.59046483    
 -0.565632999      -1.81908906      -0.00000000       3192.48901       1.59046483    
 -0.390157014      -1.86461902      -0.00000000       3195.29321       1.59229434    
 -0.449120998      -1.85130095      -0.00000000       3195.29321       1.59229434    
   0.00000000       0.00000000       0.00000000       3195.29321       1.59229434    
 -0.330799997      -1.87605906      -0.00000000       3195.29321       1.59229434    
   0.00000000       0.00000000       0.00000000       3190.99243       1.59153569    
 -0.449120998      -1.85130095      -0.00000000       3190.99243       1.59153569    
 -0.507632971      -1.83611906      -0.00000000       3190.99243       1.59153569    
 -0.565632999      -1.81908906      -0.00000000       3190.99243       1.59153569    
 -0.271109998      -1.88560998      -0.00000000       3200.71289       1.59282029    
 -0.330799997      -1.87605906      -0.00000000       3200.71289       1.59282029    
   0.00000000       0.00000000       0.00000000       3200.71289       1.59282029    
 -0.211146995      -1.89326203      -0.00000000       3200.71289       1.59282029    
  -3.02249994E-02  -1.90476000      -0.00000000       3207.53516       1.59327614    
  -9.06440020E-02  -1.90284204      -0.00000000       3207.53516       1.59327614    
   0.00000000       0.00000000       0.00000000       3207.53516       1.59327614    
   3.02249994E-02  -1.90476000      -0.00000000       3207.53516       1.59327614    
   0.00000000       0.00000000       0.00000000       3205.92065       1.59312904    
  -9.06440020E-02  -1.90284204      -0.00000000       3205.92065       1.59312904    
 -0.150970995      -1.89900804      -0.00000000       3205.92065       1.59312904    
 -0.211146995      -1.89326203      -0.00000000       3205.92065       1.59312904    
   9.06440020E-02  -1.90284204      -0.00000000       3203.64331       1.59328854    
   3.02249994E-02  -1.90476000      -0.00000000       3203.64331       1.59328854    
   0.00000000       0.00000000       0.00000000       3203.64331       1.59328854    
  0.150970995      -1.89900804      -0.00000000       3203.64331       1.59328854    
  0.330799997      -1.87605906      -0.00000000       3184.38794       1.59283936    
  0.271109998      -1.88560998      -0.00000000       3184.38794       1.59283936    
   0.00000000       0.00000000       0.00000000       3184.38794       1.59283936    
  0.390157014      -1.86461902      -0.00000000       3184.38794       1.59283936    
   0.00000000       0.00000000       0.00000000       3194.96069       1.59315872    
  0.271109998      -1.88560998      -0.00000000       3194.96069       1.59315872    
  0.211146995      -1.89326203      -0.00000000       3194.96069       1.59315872    
  0.150970995      -1.89900804      -0.00000000       3194.96069       1.59315872    
  0.449120998      -1.85130095      -0.00000000       3173.77539       1.59230304    
  0.390157014      -1.86461902      -0.00000000       3173.77539       1.59230304    
   0.00000000       0.00000000       0.00000000       3173.77539       1.59230304    
  0.507632971      -1.83611906      -0.00000000       3173.77539       1.59230304    
  0.679867983      -1.77955198      -0.00000000       3163.29541       1.59040606    
  0.623063982      -1.80022705      -0.00000000       3163.29541       1.59040606    
   0.00000000       0.00000000       0.00000000       3163.29541       1.59040606    
  0.735987008      -1.75708497      -0.00000000       3163.29541       1.59040606    
   0.00000000       0.00000000       0.00000000       3165.01758       1.59151840    
  0.623063982      -1.80022705      -0.00000000       3165.01758       1.59151840    
  0.565632999      -1.81908906      -0.00000000       3165.01758       1.59151840    
  0.507632971      -1.83611906      -0.00000000       3165.01758       1.59151840    
  0.791365981      -1.73284900      -0.00000000       3172.49414       1.58892047    
  0.735987008      -1.75708497      -0.00000000       3172.49414       1.58892047    
   0.00000000       0.00000000       0.00000000       3172.49414       1.58892047    
  0.845947027      -1.70686805      -0.00000000       3172.49414       1.58892047    
   1.00436401      -1.61872697      -0.00000000       3229.90576       1.58477676    
  0.952499986      -1.64977801      -0.00000000       3229.90576       1.58477676    
   0.00000000       0.00000000       0.00000000       3229.90576       1.58477676    
   1.05521798      -1.58604598      -0.00000000       3229.90576       1.58477676    
   0.00000000       0.00000000       0.00000000       3194.51538       1.58704090    
  0.952499986      -1.64977801      -0.00000000       3194.51538       1.58704090    
  0.899676025      -1.67916906      -0.00000000       3194.51538       1.58704090    
  0.845947027      -1.70686805      -0.00000000       3194.51538       1.58704090    
   1.10500801      -1.55176699      -0.00000000       3275.40747       1.58220184    
   1.05521798      -1.58604598      -0.00000000       3275.40747       1.58220184    
   0.00000000       0.00000000       0.00000000       3275.40747       1.58220184    
   1.15368605      -1.51592600      -0.00000000       3275.40747       1.58220184    
   1.29255998      -1.39939702      -0.00000000       3347.98315       1.57677150    
   1.24750996      -1.43970299      -0.00000000       3347.98315       1.57677150    
   0.00000000       0.00000000       0.00000000       3347.98315       1.57677150    
   1.33631003      -1.35768199      -0.00000000       3347.98315       1.57677150    
   0.00000000       0.00000000       0.00000000       3321.53296       1.57945168    
   1.24750996      -1.43970299      -0.00000000       3321.53296       1.57945168    
   1.20120299      -1.47855902      -0.00000000       3321.53296       1.57945168    