 VARIABLES="X" "Y" "Z" "abs(p) (Pa)" "angle(p) (rad)"
ZONE N=    802,E =     800, F=FEPOINT, ET=QUADRILATERAL
   1.90499997       0.00000000      -0.00000000       594.965027       1.60923004    
   1.90404105      -6.04420006E-02  -0.00000000       594.965027       1.60923004    
   0.00000000       0.00000000       0.00000000       594.965027       1.60923004    
   1.90404105       6.04420006E-02  -0.00000000       594.965027       1.60923004    
   1.88967395      0.241159007      -0.00000000       593.518860       1.60843086    
   1.89637399      0.181081995      -0.00000000       593.518860       1.60843086    
   0.00000000       0.00000000       0.00000000       593.518860       1.60843086    
   1.88107097      0.300992996      -0.00000000       593.518860       1.60843086    
   0.00000000       0.00000000       0.00000000       594.520813       1.60905468    
   1.89637399      0.181081995      -0.00000000       594.520813       1.60905468    
   1.90116501      0.120823003      -0.00000000       594.520813       1.60905468    
   1.90404105       6.04420006E-02  -0.00000000       594.520813       1.60905468    
   1.87057400      0.360523999      -0.00000000       592.632751       1.60720706    
   1.88107097      0.300992996      -0.00000000       592.632751       1.60720706    
   0.00000000       0.00000000       0.00000000       592.632751       1.60720706    
   1.85819399      0.419692010      -0.00000000       592.632751       1.60720706    
   1.80988598      0.594424009      -0.00000000       595.333435       1.60212433    
   1.82783401      0.536701024      -0.00000000       595.333435       1.60212433    
   0.00000000       0.00000000       0.00000000       595.333435       1.60212433    
   1.79011405      0.651548028      -0.00000000       595.333435       1.60212433    
   0.00000000       0.00000000       0.00000000       592.736206       1.60520899    
   1.82783401      0.536701024      -0.00000000       592.736206       1.60520899    
   1.84394205      0.478437006      -0.00000000       592.736206       1.60520899    
   1.85819399      0.419692010      -0.00000000       592.736206       1.60520899    
   1.76854098      0.708016992      -0.00000000       601.044250       1.59785795    
   1.79011405      0.651548028      -0.00000000       601.044250       1.59785795    
   0.00000000       0.00000000       0.00000000       601.044250       1.59785795    
   1.74518704      0.763773024      -0.00000000       601.044250       1.59785795    
   1.66468298      0.926204979      -0.00000000       625.147034       1.58539236    
   1.69323206      0.872922003      -0.00000000       625.147034       1.58539236    
   0.00000000       0.00000000       0.00000000       625.147034       1.58539236    
   1.63445795      0.978555024      -0.00000000       625.147034       1.58539236    
   0.00000000       0.00000000       0.00000000       610.912415       1.59224308    
   1.69323206      0.872922003      -0.00000000       610.912415       1.59224308    
   1.72007501      0.818759024      -0.00000000       610.912415       1.59224308    
   1.74518704      0.763773024      -0.00000000       610.912415       1.59224308    
   1.60258806       1.02992105      -0.00000000       643.208740       1.57756042    
   1.63445795      0.978555024      -0.00000000       643.208740       1.57756042    
   0.00000000       0.00000000       0.00000000       643.208740       1.57756042    
   1.56910396       1.08024895      -0.00000000       643.208740       1.57756042    
   1.45931494       1.22450995      -0.00000000       676.889648       1.56152213    
   1.49743104       1.17759299      -0.00000000       676.889648       1.56152213    
   0.00000000       0.00000000       0.00000000       676.889648       1.56152213    
   1.41972899       1.27019501      -0.00000000       676.889648       1.56152213    
   0.00000000       0.00000000       0.00000000       662.061951       1.56935203    
   1.49743104       1.17759299      -0.00000000       662.061951       1.56935203    
   1.53403997       1.12949002      -0.00000000       662.061951       1.56935203    
   1.56910396       1.08024895      -0.00000000       662.061951       1.56935203    
   1.37871301       1.31459999      -0.00000000       671.815308       1.55642819    
   1.41972899       1.27019501      -0.00000000       671.815308       1.55642819    
   0.00000000       0.00000000       0.00000000       671.815308       1.55642819    
   1.33631003       1.35768199      -0.00000000       671.815308       1.55642819    
   1.20120299       1.47855902      -0.00000000       563.359619       1.56092715    
   1.24750996       1.43970299      -0.00000000       563.359619       1.56092715    
   0.00000000       0.00000000       0.00000000       563.359619       1.56092715    
   1.15368605       1.51592600      -0.00000000       563.359619       1.56092715    
   0.00000000       0.00000000       0.00000000       627.745117       1.55702877    
   1.24750996       1.43970299      -0.00000000       627.745117       1.55702877    
   1.29255998       1.39939702      -0.00000000       627.745117       1.55702877    
   1.33631003       1.35768199      -0.00000000       627.745117       1.55702877    
   1.10500801       1.55176699      -0.00000000       495.968414       1.56576633    
   1.15368605       1.51592600      -0.00000000       495.968414       1.56576633    
   0.00000000       0.00000000       0.00000000       495.968414       1.56576633    
   1.05521798       1.58604598      -0.00000000       495.968414       1.56576633    
  0.899676025       1.67916906      -0.00000000       370.677948       1.57557642    
  0.952499986       1.64977801      -0.00000000       370.677948       1.57557642    
   0.00000000       0.00000000       0.00000000       370.677948       1.57557642    
  0.845947027       1.70686805      -0.00000000       370.677948       1.57557642    
   0.00000000       0.00000000       0.00000000       430.980164       1.57082081    
  0.952499986       1.64977801      -0.00000000       430.980164       1.57082081    
   1.00436401       1.61872697      -0.00000000       430.980164       1.57082081    
   1.05521798       1.58604598      -0.00000000       430.980164       1.57082081    
  0.791365981       1.73284900      -0.00000000       315.018127       1.57984483    
  0.845947027       1.70686805      -0.00000000       315.018127       1.57984483    
   0.00000000       0.00000000       0.00000000       315.018127       1.57984483    
  0.735987008       1.75708497      -0.00000000       315.018127       1.57984483    
  0.565632999       1.81908906      -0.00000000       215.261795       1.58663225    
  0.623063982       1.80022705      -0.00000000       215.261795       1.58663225    
   0.00000000       0.00000000       0.00000000       215.261795       1.58663225    
  0.507632971       1.83611906      -0.00000000       215.261795       1.58663225    
   0.00000000       0.00000000       0.00000000       263.601166       1.58344781    
  0.623063982       1.80022705      -0.00000000       263.601166       1.58344781    
  0.679867983       1.77955198      -0.00000000       263.601166       1.58344781    
  0.735987008       1.75708497      -0.00000000       263.601166       1.58344781    
  0.449120998       1.85130095      -0.00000000       168.924423       1.58975279    
  0.507632971       1.83611906      -0.00000000       168.924423       1.58975279    
   0.00000000       0.00000000       0.00000000       168.924423       1.58975279    
  0.390157014       1.86461902      -0.00000000       168.924423       1.58975279    
  0.211146995       1.89326203      -0.00000000       77.9315262       1.60262179    
  0.271109998       1.88560998      -0.00000000       77.9315262       1.60262179    
   0.00000000       0.00000000       0.00000000       77.9315262       1.60262179    
  0.150970995       1.89900804      -0.00000000       77.9315262       1.60262179    
   0.00000000       0.00000000       0.00000000       123.247322       1.59412169    
  0.271109998       1.88560998      -0.00000000       123.247322       1.59412169    
  0.330799997       1.87605906      -0.00000000       123.247322       1.59412169    
  0.390157014       1.86461902      -0.00000000       123.247322       1.59412169    
   9.06440020E-02   1.90284204      -0.00000000       32.8937531       1.63318336    
  0.150970995       1.89900804      -0.00000000       32.8937531       1.63318336    
   0.00000000       0.00000000       0.00000000       32.8937531       1.63318336    
   3.02249994E-02   1.90476000      -0.00000000       32.8937531       1.63318336    
 -0.150970995       1.89900804      -0.00000000       57.2106819      -1.59124839    
  -9.06440020E-02   1.90284204      -0.00000000       57.2106819      -1.59124839    
   0.00000000       0.00000000       0.00000000       57.2106819      -1.59124839    
 -0.211146995       1.89326203      -0.00000000       57.2106819      -1.59124839    
   0.00000000       0.00000000       0.00000000       12.2521315      -1.70253277    
  -9.06440020E-02   1.90284204      -0.00000000       12.2521315      -1.70253277    
  -3.02249994E-02   1.90476000      -0.00000000       12.2521315      -1.70253277    
   3.02249994E-02   1.90476000      -0.00000000       12.2521315      -1.70253277    
 -0.271109998       1.88560998      -0.00000000       102.382874      -1.57806909    
 -0.211146995       1.89326203      -0.00000000       102.382874      -1.57806909    
   0.00000000       0.00000000       0.00000000       102.382874      -1.57806909    
 -0.330799997       1.87605906      -0.00000000       102.382874      -1.57806909    
 -0.507632971       1.83611906      -0.00000000       194.065369      -1.57136011    
 -0.449120998       1.85130095      -0.00000000       194.065369      -1.57136011    
   0.00000000       0.00000000       0.00000000       194.065369      -1.57136011    
 -0.565632999       1.81908906      -0.00000000       194.065369      -1.57136011    
   0.00000000       0.00000000       0.00000000       147.779984      -1.57327366    
 -0.449120998       1.85130095      -0.00000000       147.779984      -1.57327366    
 -0.390157014       1.86461902      -0.00000000       147.779984      -1.57327366    
 -0.330799997       1.87605906      -0.00000000       147.779984      -1.57327366    
 -0.623063982       1.80022705      -0.00000000       242.664658      -1.57135606    
 -0.565632999       1.81908906      -0.00000000       242.664658      -1.57135606    
   0.00000000       0.00000000       0.00000000       242.664658      -1.57135606    
 -0.679867983       1.77955198      -0.00000000       242.664658      -1.57135606    
 -0.845947027       1.70686805      -0.00000000       349.543488      -1.57508385    
 -0.791365981       1.73284900      -0.00000000       349.543488      -1.57508385    
   0.00000000       0.00000000       0.00000000       349.543488      -1.57508385    
 -0.899676025       1.67916906      -0.00000000       349.543488      -1.57508385    
   0.00000000       0.00000000       0.00000000       294.128876      -1.57263863    
 -0.791365981       1.73284900      -0.00000000       294.128876      -1.57263863    
 -0.735987008       1.75708497      -0.00000000       294.128876      -1.57263863    
 -0.679867983       1.77955198      -0.00000000       294.128876      -1.57263863    
 -0.952499986       1.64977801      -0.00000000       409.160034      -1.57833719    
 -0.899676025       1.67916906      -0.00000000       409.160034      -1.57833719    
   0.00000000       0.00000000       0.00000000       409.160034      -1.57833719    
  -1.00436401       1.61872697      -0.00000000       409.160034      -1.57833719    
  -1.15368605       1.51592600      -0.00000000       537.331848      -1.58577585    
  -1.10500801       1.55176699      -0.00000000       537.331848      -1.58577585    
   0.00000000       0.00000000       0.00000000       537.331848      -1.58577585    
  -1.20120299       1.47855902      -0.00000000       537.331848      -1.58577585    
   0.00000000       0.00000000       0.00000000       472.641846      -1.58208716    
  -1.10500801       1.55176699      -0.00000000       472.641846      -1.58208716    
  -1.05521798       1.58604598      -0.00000000       472.641846      -1.58208716    
  -1.00436401       1.61872697      -0.00000000       472.641846      -1.58208716    
  -1.24750996       1.43970299      -0.00000000       598.455994      -1.58875012    
  -1.20120299       1.47855902      -0.00000000       598.455994      -1.58875012    
   0.00000000       0.00000000       0.00000000       598.455994      -1.58875012    
  -1.29255998       1.39939702      -0.00000000       598.455994      -1.58875012    
  -1.41972899       1.27019501      -0.00000000       644.697754      -1.58337164    
  -1.37871301       1.31459999      -0.00000000       644.697754      -1.58337164    
   0.00000000       0.00000000       0.00000000       644.697754      -1.58337164    
  -1.45931494       1.22450995      -0.00000000       644.697754      -1.58337164    
   0.00000000       0.00000000       0.00000000       640.416077      -1.58880997    
  -1.37871301       1.31459999      -0.00000000       640.416077      -1.58880997    
  -1.33631003       1.35768199      -0.00000000       640.416077      -1.58880997    
  -1.29255998       1.39939702      -0.00000000       640.416077      -1.58880997    
  -1.49743104       1.17759299      -0.00000000       629.334167      -1.57511485    
  -1.45931494       1.22450995      -0.00000000       629.334167      -1.57511485    
   0.00000000       0.00000000       0.00000000       629.334167      -1.57511485    
  -1.53403997       1.12949002      -0.00000000       629.334167      -1.57511485    
  -1.63445795      0.978555024      -0.00000000       593.876709      -1.55835497    
  -1.60258806       1.02992105      -0.00000000       593.876709      -1.55835497    
   0.00000000       0.00000000       0.00000000       593.876709      -1.55835497    
  -1.66468298      0.926204979      -0.00000000       593.876709      -1.55835497    
   0.00000000       0.00000000       0.00000000       610.701477      -1.56649733    
  -1.60258806       1.02992105      -0.00000000       610.701477      -1.56649733    
  -1.56910396       1.08024895      -0.00000000       610.701477      -1.56649733    
  -1.53403997       1.12949002      -0.00000000       610.701477      -1.56649733    
  -1.69323206      0.872922003      -0.00000000       581.345337      -1.55128598    
  -1.66468298      0.926204979      -0.00000000       581.345337      -1.55128598    
   0.00000000       0.00000000       0.00000000       581.345337      -1.55128598    
  -1.72007501      0.818759024      -0.00000000       581.345337      -1.55128598    
  -1.79011405      0.651548028      -0.00000000       568.868774      -1.54103231    
  -1.76854098      0.708016992      -0.00000000       568.868774      -1.54103231    
   0.00000000       0.00000000       0.00000000       568.868774      -1.54103231    
  -1.80988598      0.594424009      -0.00000000       568.868774      -1.54103231    
   0.00000000       0.00000000       0.00000000       573.139709      -1.54548764    
  -1.76854098      0.708016992      -0.00000000       573.139709      -1.54548764    
  -1.74518704      0.763773024      -0.00000000       573.139709      -1.54548764    
  -1.72007501      0.818759024      -0.00000000       573.139709      -1.54548764    
  -1.82783401      0.536701024      -0.00000000       567.617065      -1.53778410    
  -1.80988598      0.594424009      -0.00000000       567.617065      -1.53778410    
   0.00000000       0.00000000       0.00000000       567.617065      -1.53778410    
  -1.84394205      0.478437006      -0.00000000       567.617065      -1.53778410    
  -1.88107097      0.300992996      -0.00000000       569.617310      -1.53406000    
  -1.87057400      0.360523999      -0.00000000       569.617310      -1.53406000    
   0.00000000       0.00000000       0.00000000       569.617310      -1.53406000    
  -1.88967395      0.241159007      -0.00000000       569.617310      -1.53406000    
   0.00000000       0.00000000       0.00000000       568.282349      -1.53555286    
  -1.87057400      0.360523999      -0.00000000       568.282349      -1.53555286    
  -1.85819399      0.419692010      -0.00000000       568.282349      -1.53555286    
  -1.84394205      0.478437006      -0.00000000       568.282349      -1.53555286    
  -1.89637399      0.181081995      -0.00000000       571.103516      -1.53318954    
  -1.88967395      0.241159007      -0.00000000       571.103516      -1.53318954    
   0.00000000       0.00000000       0.00000000       571.103516      -1.53318954    
  -1.90116501      0.120823003      -0.00000000       571.103516      -1.53318954    
  -1.90404105      -6.04420006E-02  -0.00000000       572.127197      -1.53280795    
  -1.90499997       0.00000000      -0.00000000       572.127197      -1.53280795    
   0.00000000       0.00000000       0.00000000       572.127197      -1.53280795    
  -1.90116501     -0.120823003      -0.00000000       572.127197      -1.53280795    
   0.00000000       0.00000000       0.00000000       572.126404      -1.53281486    
  -1.90499997       0.00000000      -0.00000000       572.126404      -1.53281486    
  -1.90404105       6.04420006E-02  -0.00000000       572.126404      -1.53281486    
  -1.90116501      0.120823003      -0.00000000       572.126404      -1.53281486    
  -1.89637399     -0.181081995      -0.00000000       571.223083      -1.53318799    
  -1.90116501     -0.120823003      -0.00000000       571.223083      -1.53318799    
   0.00000000       0.00000000       0.00000000       571.223083      -1.53318799    
  -1.88967395     -0.241159007      -0.00000000       571.223083      -1.53318799    
  -1.85819399     -0.419692010      -0.00000000       569.338806      -1.53568828    
  -1.87057400     -0.360523999      -0.00000000       569.338806      -1.53568828    
   0.00000000       0.00000000       0.00000000       569.338806      -1.53568828    
  -1.84394205     -0.478437006      -0.00000000       569.338806      -1.53568828    
   0.00000000       0.00000000       0.00000000       570.150818      -1.53411770    
  -1.87057400     -0.360523999      -0.00000000       570.150818      -1.53411770    
  -1.88107097     -0.300992996      -0.00000000       570.150818      -1.53411770    
  -1.88967395     -0.241159007      -0.00000000       570.150818      -1.53411770    
  -1.82783401     -0.536701024      -0.00000000       569.419617      -1.53802705    
  -1.84394205     -0.478437006      -0.00000000       569.419617      -1.53802705    
   0.00000000       0.00000000       0.00000000       569.419617      -1.53802705    
  -1.80988598     -0.594424009      -0.00000000       569.419617      -1.53802705    
  -1.74518704     -0.763773024      -0.00000000       577.112427      -1.54598927    
  -1.76854098     -0.708016992      -0.00000000       577.112427      -1.54598927    
   0.00000000       0.00000000       0.00000000       577.112427      -1.54598927    
  -1.72007501     -0.818759024      -0.00000000       577.112427      -1.54598927    
   0.00000000       0.00000000       0.00000000       571.810303      -1.54142857    
  -1.76854098     -0.708016992      -0.00000000       571.810303      -1.54142857    
  -1.79011405     -0.651548028      -0.00000000       571.810303      -1.54142857    
  -1.80988598     -0.594424009      -0.00000000       571.810303      -1.54142857    
  -1.69323206     -0.872922003      -0.00000000       586.261536      -1.55183578    
  -1.72007501     -0.818759024      -0.00000000       586.261536      -1.55183578    
   0.00000000       0.00000000       0.00000000       586.261536      -1.55183578    
  -1.66468298     -0.926204979      -0.00000000       586.261536      -1.55183578    
  -1.56910396      -1.08024895      -0.00000000       616.365417      -1.56686151    
  -1.60258806      -1.02992105      -0.00000000       616.365417      -1.56686151    
   0.00000000       0.00000000       0.00000000       616.365417      -1.56686151    
  -1.53403997      -1.12949002      -0.00000000       616.365417      -1.56686151    
   0.00000000       0.00000000       0.00000000       599.571838      -1.55888283    
  -1.60258806      -1.02992105      -0.00000000       599.571838      -1.55888283    
  -1.63445795     -0.978555024      -0.00000000       599.571838      -1.55888283    
  -1.66468298     -0.926204979      -0.00000000       599.571838      -1.55888283    
  -1.49743104      -1.17759299      -0.00000000       633.778259      -1.57520115    
  -1.53403997      -1.12949002      -0.00000000       633.778259      -1.57520115    
   0.00000000       0.00000000       0.00000000       633.778259      -1.57520115    
  -1.45931494      -1.22450995      -0.00000000       633.778259      -1.57520115    
  -1.33631003      -1.35768199      -0.00000000       641.100220      -1.58851206    
  -1.37871301      -1.31459999      -0.00000000       641.100220      -1.58851206    
   0.00000000       0.00000000       0.00000000       641.100220      -1.58851206    
  -1.29255998      -1.39939702      -0.00000000       641.100220      -1.58851206    
   0.00000000       0.00000000       0.00000000       647.198059      -1.58318186    
  -1.37871301      -1.31459999      -0.00000000       647.198059      -1.58318186    
  -1.41972899      -1.27019501      -0.00000000       647.198059      -1.58318186    
  -1.45931494      -1.22450995      -0.00000000       647.198059      -1.58318186    
  -1.24750996      -1.43970299      -0.00000000       597.141724      -1.58839524    
  -1.29255998      -1.39939702      -0.00000000       597.141724      -1.58839524    
   0.00000000       0.00000000       0.00000000       597.141724      -1.58839524    
  -1.20120299      -1.47855902      -0.00000000       597.141724      -1.58839524    
  -1.05521798      -1.58604598      -0.00000000       467.324219      -1.58131921    
  -1.10500801      -1.55176699      -0.00000000       467.324219      -1.58131921    
   0.00000000       0.00000000       0.00000000       467.324219      -1.58131921    
  -1.00436401      -1.61872697      -0.00000000       467.324219      -1.58131921    
   0.00000000       0.00000000       0.00000000       533.671143      -1.58523691    
  -1.10500801      -1.55176699      -0.00000000       533.671143      -1.58523691    
  -1.15368605      -1.51592600      -0.00000000       533.671143      -1.58523691    
  -1.20120299      -1.47855902      -0.00000000       533.671143      -1.58523691    
 -0.952499986      -1.64977801      -0.00000000       403.281433      -1.57738721    
  -1.00436401      -1.61872697      -0.00000000       403.281433      -1.57738721    
   0.00000000       0.00000000       0.00000000       403.281433      -1.57738721    
 -0.899676025      -1.67916906      -0.00000000       403.281433      -1.57738721    
 -0.735987008      -1.75708497      -0.00000000       288.601929      -1.57140803    
 -0.791365981      -1.73284900      -0.00000000       288.601929      -1.57140803    
   0.00000000       0.00000000       0.00000000       288.601929      -1.57140803    
 -0.679867983      -1.77955198      -0.00000000       288.601929      -1.57140803    
   0.00000000       0.00000000       0.00000000       343.698822      -1.57398224    
 -0.791365981      -1.73284900      -0.00000000       343.698822      -1.57398224    
 -0.845947027      -1.70686805      -0.00000000       343.698822      -1.57398224    
 -0.899676025      -1.67916906      -0.00000000       343.698822      -1.57398224    
 -0.623063982      -1.80022705      -0.00000000       237.631516      -1.57002401    
 -0.679867983      -1.77955198      -0.00000000       237.631516      -1.57002401    
   0.00000000       0.00000000       0.00000000       237.631516      -1.57002401    
 -0.565632999      -1.81908906      -0.00000000       237.631516      -1.57002401    
 -0.390157014      -1.86461902      -0.00000000       143.639587      -1.57165992    
 -0.449120998      -1.85130095      -0.00000000       143.639587      -1.57165992    
   0.00000000       0.00000000       0.00000000       143.639587      -1.57165992    
 -0.330799997      -1.87605906      -0.00000000       143.639587      -1.57165992    
   0.00000000       0.00000000       0.00000000       189.656708      -1.56995702    
 -0.449120998      -1.85130095      -0.00000000       189.656708      -1.56995702    
 -0.507632971      -1.83611906      -0.00000000       189.656708      -1.56995702    
 -0.565632999      -1.81908906      -0.00000000       189.656708      -1.56995702    
 -0.271109998      -1.88560998      -0.00000000       98.2359085      -1.57597792    
 -0.330799997      -1.87605906      -0.00000000       98.2359085      -1.57597792    
   0.00000000       0.00000000       0.00000000       98.2359085      -1.57597792    
 -0.211146995      -1.89326203      -0.00000000       98.2359085      -1.57597792    
  -3.02249994E-02  -1.90476000      -0.00000000       8.28322983      -1.73939025    
  -9.06440020E-02  -1.90284204      -0.00000000       8.28322983      -1.73939025    
   0.00000000       0.00000000       0.00000000       8.28322983      -1.73939025    
   3.02249994E-02  -1.90476000      -0.00000000       8.28322983      -1.73939025    
   0.00000000       0.00000000       0.00000000       53.1304131      -1.58854783    
  -9.06440020E-02  -1.90284204      -0.00000000       53.1304131      -1.58854783    
 -0.150970995      -1.89900804      -0.00000000       53.1304131      -1.58854783    
 -0.211146995      -1.89326203      -0.00000000       53.1304131      -1.58854783    
   9.06440020E-02  -1.90284204      -0.00000000       36.8757286       1.62045896    
   3.02249994E-02  -1.90476000      -0.00000000       36.8757286       1.62045896    
   0.00000000       0.00000000       0.00000000       36.8757286       1.62045896    
  0.150970995      -1.89900804      -0.00000000       36.8757286       1.62045896    
  0.330799997      -1.87605906      -0.00000000       127.470413       1.59144998    
  0.271109998      -1.88560998      -0.00000000       127.470413       1.59144998    
   0.00000000       0.00000000       0.00000000       127.470413       1.59144998    
  0.390157014      -1.86461902      -0.00000000       127.470413       1.59144998    
   0.00000000       0.00000000       0.00000000       82.0557175       1.59821105    
  0.271109998      -1.88560998      -0.00000000       82.0557175       1.59821105    
  0.211146995      -1.89326203      -0.00000000       82.0557175       1.59821105    
  0.150970995      -1.89900804      -0.00000000       82.0557175       1.59821105    
  0.449120998      -1.85130095      -0.00000000       173.185760       1.58782828    
  0.390157014      -1.86461902      -0.00000000       173.185760       1.58782828    
   0.00000000       0.00000000       0.00000000       173.185760       1.58782828    
  0.507632971      -1.83611906      -0.00000000       173.185760       1.58782828    
  0.679867983      -1.77955198      -0.00000000       268.861420       1.58193970    
  0.623063982      -1.80022705      -0.00000000       268.861420       1.58193970    
   0.00000000       0.00000000       0.00000000       268.861420       1.58193970    
  0.735987008      -1.75708497      -0.00000000       268.861420       1.58193970    
   0.00000000       0.00000000       0.00000000       219.836533       1.58501887    
  0.623063982      -1.80022705      -0.00000000       219.836533       1.58501887    
  0.565632999      -1.81908906      -0.00000000       219.836533       1.58501887    
  0.507632971      -1.83611906      -0.00000000       219.836533       1.58501887    
  0.791365981      -1.73284900      -0.00000000       320.826080       1.57846391    
  0.735987008      -1.75708497      -0.00000000       320.826080       1.57846391    
   0.00000000       0.00000000       0.00000000       320.826080       1.57846391    
  0.845947027      -1.70686805      -0.00000000       320.826080       1.57846391    
   1.00436401      -1.61872697      -0.00000000       437.265564       1.56976283    
  0.952499986      -1.64977801      -0.00000000       437.265564       1.56976283    
   0.00000000       0.00000000       0.00000000       437.265564       1.56976283    
   1.05521798      -1.58604598      -0.00000000       437.265564       1.56976283    
   0.00000000       0.00000000       0.00000000       376.859161       1.57435250    
  0.952499986      -1.64977801      -0.00000000       376.859161       1.57435250    
  0.899676025      -1.67916906      -0.00000000       376.859161       1.57435250    
  0.845947027      -1.70686805      -0.00000000       376.859161       1.57435250    
   1.10500801      -1.55176699      -0.00000000       501.722229       1.56491733    
   1.05521798      -1.58604598      -0.00000000       501.722229       1.56491733    
   0.00000000       0.00000000       0.00000000       501.722229       1.56491733    
   1.15368605      -1.51592600      -0.00000000       501.722229       1.56491733    
   1.29255998      -1.39939702      -0.00000000       629.392334       1.55664790    
   1.24750996      -1.43970299      -0.00000000       629.392334       1.55664790    
   0.00000000       0.00000000       0.00000000       629.392334       1.55664790    
   1.33631003      -1.35768199      -0.00000000       629.392334       1.55664790    
   0.00000000       0.00000000       0.00000000       567.403687       1.56033587    
   1.24750996      -1.43970299      -0.00000000       567.403687       1.56033587    
   1.20120299      -1.47855902      -0.00000000       567.403687       1.56033587    