 VARIABLES="X" "Y" "Z" "abs(p) (Pa)" "angle(p) (rad)"
ZONE N=    802,E =     800, F=FEPOINT, ET=QUADRILATERAL
   1.90499997       0.00000000      -0.00000000       33.9799538       1.71895194    
   1.90404105      -6.04420006E-02  -0.00000000       33.9799538       1.71895194    
   0.00000000       0.00000000       0.00000000       33.9799538       1.71895194    
   1.90404105       6.04420006E-02  -0.00000000       33.9799538       1.71895194    
   1.88967395      0.241159007      -0.00000000       33.9632759       1.71902037    
   1.89637399      0.181081995      -0.00000000       33.9632759       1.71902037    
   0.00000000       0.00000000       0.00000000       33.9632759       1.71902037    
   1.88107097      0.300992996      -0.00000000       33.9632759       1.71902037    
   0.00000000       0.00000000       0.00000000       33.9762001       1.71896744    
   1.89637399      0.181081995      -0.00000000       33.9762001       1.71896744    
   1.90116501      0.120823003      -0.00000000       33.9762001       1.71896744    
   1.90404105       6.04420006E-02  -0.00000000       33.9762001       1.71896744    
   1.87057400      0.360523999      -0.00000000       33.9399185       1.71911633    
   1.88107097      0.300992996      -0.00000000       33.9399185       1.71911633    
   0.00000000       0.00000000       0.00000000       33.9399185       1.71911633    
   1.85819399      0.419692010      -0.00000000       33.9399185       1.71911633    
   1.80988598      0.594424009      -0.00000000       33.8551712       1.71946573    
   1.82783401      0.536701024      -0.00000000       33.8551712       1.71946573    
   0.00000000       0.00000000       0.00000000       33.8551712       1.71946573    
   1.79011405      0.651548028      -0.00000000       33.8551712       1.71946573    
   0.00000000       0.00000000       0.00000000       33.9049339       1.71926069    
   1.82783401      0.536701024      -0.00000000       33.9049339       1.71926069    
   1.84394205      0.478437006      -0.00000000       33.9049339       1.71926069    
   1.85819399      0.419692010      -0.00000000       33.9049339       1.71926069    
   1.76854098      0.708016992      -0.00000000       33.7880287       1.71974337    
   1.79011405      0.651548028      -0.00000000       33.7880287       1.71974337    
   0.00000000       0.00000000       0.00000000       33.7880287       1.71974337    
   1.74518704      0.763773024      -0.00000000       33.7880287       1.71974337    
   1.66468298      0.926204979      -0.00000000       33.5990448       1.72052598    
   1.69323206      0.872922003      -0.00000000       33.5990448       1.72052598    
   0.00000000       0.00000000       0.00000000       33.5990448       1.72052598    
   1.63445795      0.978555024      -0.00000000       33.5990448       1.72052598    
   0.00000000       0.00000000       0.00000000       33.7028122       1.72009599    
   1.69323206      0.872922003      -0.00000000       33.7028122       1.72009599    
   1.72007501      0.818759024      -0.00000000       33.7028122       1.72009599    
   1.74518704      0.763773024      -0.00000000       33.7028122       1.72009599    
   1.60258806       1.02992105      -0.00000000       33.4796066       1.72102070    
   1.63445795      0.978555024      -0.00000000       33.4796066       1.72102070    
   0.00000000       0.00000000       0.00000000       33.4796066       1.72102070    
   1.56910396       1.08024895      -0.00000000       33.4796066       1.72102070    
   1.45931494       1.22450995      -0.00000000       33.2297134       1.72205067    
   1.49743104       1.17759299      -0.00000000       33.2297134       1.72205067    
   0.00000000       0.00000000       0.00000000       33.2297134       1.72205067    
   1.41972899       1.27019501      -0.00000000       33.2297134       1.72205067    
   0.00000000       0.00000000       0.00000000       33.3514633       1.72155035    
   1.49743104       1.17759299      -0.00000000       33.3514633       1.72155035    
   1.53403997       1.12949002      -0.00000000       33.3514633       1.72155035    
   1.56910396       1.08024895      -0.00000000       33.3514633       1.72155035    
   1.37871301       1.31459999      -0.00000000       33.1690369       1.72229719    
   1.41972899       1.27019501      -0.00000000       33.1690369       1.72229719    
   0.00000000       0.00000000       0.00000000       33.1690369       1.72229719    
   1.33631003       1.35768199      -0.00000000       33.1690369       1.72229719    
   1.20120299       1.47855902      -0.00000000       33.3727875       1.72145760    
   1.24750996       1.43970299      -0.00000000       33.3727875       1.72145760    
   0.00000000       0.00000000       0.00000000       33.3727875       1.72145760    
   1.15368605       1.51592600      -0.00000000       33.3727875       1.72145760    
   0.00000000       0.00000000       0.00000000       33.2392540       1.72200775    
   1.24750996       1.43970299      -0.00000000       33.2392540       1.72200775    
   1.29255998       1.39939702      -0.00000000       33.2392540       1.72200775    
   1.33631003       1.35768199      -0.00000000       33.2392540       1.72200775    
   1.10500801       1.55176699      -0.00000000       33.5090942       1.72089410    
   1.15368605       1.51592600      -0.00000000       33.5090942       1.72089410    
   0.00000000       0.00000000       0.00000000       33.5090942       1.72089410    
   1.05521798       1.58604598      -0.00000000       33.5090942       1.72089410    
  0.899676025       1.67916906      -0.00000000       33.7378807       1.71994793    
  0.952499986       1.64977801      -0.00000000       33.7378807       1.71994793    
   0.00000000       0.00000000       0.00000000       33.7378807       1.71994793    
  0.845947027       1.70686805      -0.00000000       33.7378807       1.71994793    
   0.00000000       0.00000000       0.00000000       33.6324272       1.72038400    
  0.952499986       1.64977801      -0.00000000       33.6324272       1.72038400    
   1.00436401       1.61872697      -0.00000000       33.6324272       1.72038400    
   1.05521798       1.58604598      -0.00000000       33.6324272       1.72038400    
  0.791365981       1.73284900      -0.00000000       33.8231773       1.71959579    
  0.845947027       1.70686805      -0.00000000       33.8231773       1.71959579    
   0.00000000       0.00000000       0.00000000       33.8231773       1.71959579    
  0.735987008       1.75708497      -0.00000000       33.8231773       1.71959579    
  0.565632999       1.81908906      -0.00000000       33.9384117       1.71912158    
  0.623063982       1.80022705      -0.00000000       33.9384117       1.71912158    
   0.00000000       0.00000000       0.00000000       33.9384117       1.71912158    
  0.507632971       1.83611906      -0.00000000       33.9384117       1.71912158    
   0.00000000       0.00000000       0.00000000       33.8890343       1.71932435    
  0.623063982       1.80022705      -0.00000000       33.8890343       1.71932435    
  0.679867983       1.77955198      -0.00000000       33.8890343       1.71932435    
  0.735987008       1.75708497      -0.00000000       33.8890343       1.71932435    
  0.449120998       1.85130095      -0.00000000       33.9737282       1.71897662    
  0.507632971       1.83611906      -0.00000000       33.9737282       1.71897662    
   0.00000000       0.00000000       0.00000000       33.9737282       1.71897662    
  0.390157014       1.86461902      -0.00000000       33.9737282       1.71897662    
  0.211146995       1.89326203      -0.00000000       34.0122528       1.71881890    
  0.271109998       1.88560998      -0.00000000       34.0122528       1.71881890    
   0.00000000       0.00000000       0.00000000       34.0122528       1.71881890    
  0.150970995       1.89900804      -0.00000000       34.0122528       1.71881890    
   0.00000000       0.00000000       0.00000000       33.9980583       1.71887708    
  0.271109998       1.88560998      -0.00000000       33.9980583       1.71887708    
  0.330799997       1.87605906      -0.00000000       33.9980583       1.71887708    
  0.390157014       1.86461902      -0.00000000       33.9980583       1.71887708    
   9.06440020E-02   1.90284204      -0.00000000       34.0186729       1.71879292    
  0.150970995       1.89900804      -0.00000000       34.0186729       1.71879292    
   0.00000000       0.00000000       0.00000000       34.0186729       1.71879292    
   3.02249994E-02   1.90476000      -0.00000000       34.0186729       1.71879292    
 -0.150970995       1.89900804      -0.00000000       34.0112724       1.71882331    
  -9.06440020E-02   1.90284204      -0.00000000       34.0112724       1.71882331    
   0.00000000       0.00000000       0.00000000       34.0112724       1.71882331    
 -0.211146995       1.89326203      -0.00000000       34.0112724       1.71882331    
   0.00000000       0.00000000       0.00000000       34.0185432       1.71879363    
  -9.06440020E-02   1.90284204      -0.00000000       34.0185432       1.71879363    
  -3.02249994E-02   1.90476000      -0.00000000       34.0185432       1.71879363    
   3.02249994E-02   1.90476000      -0.00000000       34.0185432       1.71879363    
 -0.271109998       1.88560998      -0.00000000       33.9949074       1.71888995    
 -0.211146995       1.89326203      -0.00000000       33.9949074       1.71888995    
   0.00000000       0.00000000       0.00000000       33.9949074       1.71888995    
 -0.330799997       1.87605906      -0.00000000       33.9949074       1.71888995    
 -0.507632971       1.83611906      -0.00000000       33.9305496       1.71915400    
 -0.449120998       1.85130095      -0.00000000       33.9305496       1.71915400    
   0.00000000       0.00000000       0.00000000       33.9305496       1.71915400    
 -0.565632999       1.81908906      -0.00000000       33.9305496       1.71915400    
   0.00000000       0.00000000       0.00000000       33.9684219       1.71899843    
 -0.449120998       1.85130095      -0.00000000       33.9684219       1.71899843    
 -0.390157014       1.86461902      -0.00000000       33.9684219       1.71899843    
 -0.330799997       1.87605906      -0.00000000       33.9684219       1.71899843    
 -0.623063982       1.80022705      -0.00000000       33.8776741       1.71937168    
 -0.565632999       1.81908906      -0.00000000       33.8776741       1.71937168    
   0.00000000       0.00000000       0.00000000       33.8776741       1.71937168    
 -0.679867983       1.77955198      -0.00000000       33.8776741       1.71937168    
 -0.845947027       1.70686805      -0.00000000       33.7193909       1.72002590    
 -0.791365981       1.73284900      -0.00000000       33.7193909       1.72002590    
   0.00000000       0.00000000       0.00000000       33.7193909       1.72002590    
 -0.899676025       1.67916906      -0.00000000       33.7193909       1.72002590    
   0.00000000       0.00000000       0.00000000       33.8075562       1.71966112    
 -0.791365981       1.73284900      -0.00000000       33.8075562       1.71966112    
 -0.735987008       1.75708497      -0.00000000       33.8075562       1.71966112    
 -0.679867983       1.77955198      -0.00000000       33.8075562       1.71966112    
 -0.952499986       1.64977801      -0.00000000       33.6132507       1.72046542    
 -0.899676025       1.67916906      -0.00000000       33.6132507       1.72046542    
   0.00000000       0.00000000       0.00000000       33.6132507       1.72046542    
  -1.00436401       1.61872697      -0.00000000       33.6132507       1.72046542    
  -1.15368605       1.51592600      -0.00000000       33.3619614       1.72150493    
  -1.10500801       1.55176699      -0.00000000       33.3619614       1.72150493    
   0.00000000       0.00000000       0.00000000       33.3619614       1.72150493    
  -1.20120299       1.47855902      -0.00000000       33.3619614       1.72150493    
   0.00000000       0.00000000       0.00000000       33.4918442       1.72096801    
  -1.10500801       1.55176699      -0.00000000       33.4918442       1.72096801    
  -1.05521798       1.58604598      -0.00000000       33.4918442       1.72096801    
  -1.00436401       1.61872697      -0.00000000       33.4918442       1.72096801    
  -1.24750996       1.43970299      -0.00000000       33.2388306       1.72201049    
  -1.20120299       1.47855902      -0.00000000       33.2388306       1.72201049    
   0.00000000       0.00000000       0.00000000       33.2388306       1.72201049    
  -1.29255998       1.39939702      -0.00000000       33.2388306       1.72201049    
  -1.41972899       1.27019501      -0.00000000       33.2470627       1.72197366    
  -1.37871301       1.31459999      -0.00000000       33.2470627       1.72197366    
   0.00000000       0.00000000       0.00000000       33.2470627       1.72197366    
  -1.45931494       1.22450995      -0.00000000       33.2470627       1.72197366    
   0.00000000       0.00000000       0.00000000       33.1774216       1.72226036    
  -1.37871301       1.31459999      -0.00000000       33.1774216       1.72226036    
  -1.33631003       1.35768199      -0.00000000       33.1774216       1.72226036    
  -1.29255998       1.39939702      -0.00000000       33.1774216       1.72226036    
  -1.49743104       1.17759299      -0.00000000       33.3796730       1.72142780    
  -1.45931494       1.22450995      -0.00000000       33.3796730       1.72142780    
   0.00000000       0.00000000       0.00000000       33.3796730       1.72142780    
  -1.53403997       1.12949002      -0.00000000       33.3796730       1.72142780    
  -1.63445795      0.978555024      -0.00000000       33.6380577       1.72035968    
  -1.60258806       1.02992105      -0.00000000       33.6380577       1.72035968    
   0.00000000       0.00000000       0.00000000       33.6380577       1.72035968    
  -1.66468298      0.926204979      -0.00000000       33.6380577       1.72035968    
   0.00000000       0.00000000       0.00000000       33.5152931       1.72086740    
  -1.60258806       1.02992105      -0.00000000       33.5152931       1.72086740    
  -1.56910396       1.08024895      -0.00000000       33.5152931       1.72086740    
  -1.53403997       1.12949002      -0.00000000       33.5152931       1.72086740    
  -1.69323206      0.872922003      -0.00000000       33.7430573       1.71992588    
  -1.66468298      0.926204979      -0.00000000       33.7430573       1.71992588    
   0.00000000       0.00000000       0.00000000       33.7430573       1.71992588    
  -1.72007501      0.818759024      -0.00000000       33.7430573       1.71992588    
  -1.79011405      0.651548028      -0.00000000       33.8934288       1.71930563    
  -1.76854098      0.708016992      -0.00000000       33.8934288       1.71930563    
   0.00000000       0.00000000       0.00000000       33.8934288       1.71930563    
  -1.80988598      0.594424009      -0.00000000       33.8934288       1.71930563    
   0.00000000       0.00000000       0.00000000       33.8279762       1.71957517    
  -1.76854098      0.708016992      -0.00000000       33.8279762       1.71957517    
  -1.74518704      0.763773024      -0.00000000       33.8279762       1.71957517    
  -1.72007501      0.818759024      -0.00000000       33.8279762       1.71957517    
  -1.82783401      0.536701024      -0.00000000       33.9423790       1.71910477    
  -1.80988598      0.594424009      -0.00000000       33.9423790       1.71910477    
   0.00000000       0.00000000       0.00000000       33.9423790       1.71910477    
  -1.84394205      0.478437006      -0.00000000       33.9423790       1.71910477    
  -1.88107097      0.300992996      -0.00000000       34.0015030       1.71886253    
  -1.87057400      0.360523999      -0.00000000       34.0015030       1.71886253    
   0.00000000       0.00000000       0.00000000       34.0015030       1.71886253    
  -1.88967395      0.241159007      -0.00000000       34.0015030       1.71886253    
   0.00000000       0.00000000       0.00000000       33.9774513       1.71896088    
  -1.87057400      0.360523999      -0.00000000       33.9774513       1.71896088    
  -1.85819399      0.419692010      -0.00000000       33.9774513       1.71896088    
  -1.84394205      0.478437006      -0.00000000       33.9774513       1.71896088    
  -1.89637399      0.181081995      -0.00000000       34.0154800       1.71880531    
  -1.88967395      0.241159007      -0.00000000       34.0154800       1.71880531    
   0.00000000       0.00000000       0.00000000       34.0154800       1.71880531    
  -1.90116501      0.120823003      -0.00000000       34.0154800       1.71880531    
  -1.90404105      -6.04420006E-02  -0.00000000       34.0213966       1.71878159    
  -1.90499997       0.00000000      -0.00000000       34.0213966       1.71878159    
   0.00000000       0.00000000       0.00000000       34.0213966       1.71878159    
  -1.90116501     -0.120823003      -0.00000000       34.0213966       1.71878159    
   0.00000000       0.00000000       0.00000000       34.0217056       1.71878016    
  -1.90499997       0.00000000      -0.00000000       34.0217056       1.71878016    
  -1.90404105       6.04420006E-02  -0.00000000       34.0217056       1.71878016    
  -1.90116501      0.120823003      -0.00000000       34.0217056       1.71878016    
  -1.89637399     -0.181081995      -0.00000000       34.0138016       1.71881247    
  -1.90116501     -0.120823003      -0.00000000       34.0138016       1.71881247    
   0.00000000       0.00000000       0.00000000       34.0138016       1.71881247    
  -1.88967395     -0.241159007      -0.00000000       34.0138016       1.71881247    
  -1.85819399     -0.419692010      -0.00000000       33.9705887       1.71898937    
  -1.87057400     -0.360523999      -0.00000000       33.9705887       1.71898937    
   0.00000000       0.00000000       0.00000000       33.9705887       1.71898937    
  -1.84394205     -0.478437006      -0.00000000       33.9705887       1.71898937    
   0.00000000       0.00000000       0.00000000       33.9973145       1.71887970    
  -1.87057400     -0.360523999      -0.00000000       33.9973145       1.71887970    
  -1.88107097     -0.300992996      -0.00000000       33.9973145       1.71887970    
  -1.88967395     -0.241159007      -0.00000000       33.9973145       1.71887970    
  -1.82783401     -0.536701024      -0.00000000       33.9324532       1.71914613    
  -1.84394205     -0.478437006      -0.00000000       33.9324532       1.71914613    
   0.00000000       0.00000000       0.00000000       33.9324532       1.71914613    
  -1.80988598     -0.594424009      -0.00000000       33.9324532       1.71914613    
  -1.74518704     -0.763773024      -0.00000000       33.8088112       1.71965599    
  -1.76854098     -0.708016992      -0.00000000       33.8088112       1.71965599    
   0.00000000       0.00000000       0.00000000       33.8088112       1.71965599    
  -1.72007501     -0.818759024      -0.00000000       33.8088112       1.71965599    
   0.00000000       0.00000000       0.00000000       33.8792725       1.71936500    
  -1.76854098     -0.708016992      -0.00000000       33.8792725       1.71936500    
  -1.79011405     -0.651548028      -0.00000000       33.8792725       1.71936500    
  -1.80988598     -0.594424009      -0.00000000       33.8792725       1.71936500    
  -1.69323206     -0.872922003      -0.00000000       33.7203979       1.72002161    
  -1.72007501     -0.818759024      -0.00000000       33.7203979       1.72002161    
   0.00000000       0.00000000       0.00000000       33.7203979       1.72002161    
  -1.66468298     -0.926204979      -0.00000000       33.7203979       1.72002161    
  -1.56910396      -1.08024895      -0.00000000       33.4920654       1.72096729    
  -1.60258806      -1.02992105      -0.00000000       33.4920654       1.72096729    
   0.00000000       0.00000000       0.00000000       33.4920654       1.72096729    
  -1.53403997      -1.12949002      -0.00000000       33.4920654       1.72096729    
   0.00000000       0.00000000       0.00000000       33.6138725       1.72046268    
  -1.60258806      -1.02992105      -0.00000000       33.6138725       1.72046268    
  -1.63445795     -0.978555024      -0.00000000       33.6138725       1.72046268    
  -1.66468298     -0.926204979      -0.00000000       33.6138725       1.72046268    
  -1.49743104      -1.17759299      -0.00000000       33.3618050       1.72150552    
  -1.53403997      -1.12949002      -0.00000000       33.3618050       1.72150552    
   0.00000000       0.00000000       0.00000000       33.3618050       1.72150552    
  -1.45931494      -1.22450995      -0.00000000       33.3618050       1.72150552    
  -1.33631003      -1.35768199      -0.00000000       33.1769218       1.72226238    
  -1.37871301      -1.31459999      -0.00000000       33.1769218       1.72226238    
   0.00000000       0.00000000       0.00000000       33.1769218       1.72226238    
  -1.29255998      -1.39939702      -0.00000000       33.1769218       1.72226238    
   0.00000000       0.00000000       0.00000000       33.2382545       1.72201276    
  -1.37871301      -1.31459999      -0.00000000       33.2382545       1.72201276    
  -1.41972899      -1.27019501      -0.00000000       33.2382545       1.72201276    
  -1.45931494      -1.22450995      -0.00000000       33.2382545       1.72201276    
  -1.24750996      -1.43970299      -0.00000000       33.2466278       1.72197580    
  -1.29255998      -1.39939702      -0.00000000       33.2466278       1.72197580    
   0.00000000       0.00000000       0.00000000       33.2466278       1.72197580    
  -1.20120299      -1.47855902      -0.00000000       33.2466278       1.72197580    
  -1.05521798      -1.58604598      -0.00000000       33.5141716       1.72087228    
  -1.10500801      -1.55176699      -0.00000000       33.5141716       1.72087228    
   0.00000000       0.00000000       0.00000000       33.5141716       1.72087228    
  -1.00436401      -1.61872697      -0.00000000       33.5141716       1.72087228    
   0.00000000       0.00000000       0.00000000       33.3789597       1.72143090    
  -1.10500801      -1.55176699      -0.00000000       33.3789597       1.72143090    
  -1.15368605      -1.51592600      -0.00000000       33.3789597       1.72143090    
  -1.20120299      -1.47855902      -0.00000000       33.3789597       1.72143090    
 -0.952499986      -1.64977801      -0.00000000       33.6365891       1.72036600    
  -1.00436401      -1.61872697      -0.00000000       33.6365891       1.72036600    
   0.00000000       0.00000000       0.00000000       33.6365891       1.72036600    
 -0.899676025      -1.67916906      -0.00000000       33.6365891       1.72036600    
 -0.735987008      -1.75708497      -0.00000000       33.8258743       1.71958423    
 -0.791365981      -1.73284900      -0.00000000       33.8258743       1.71958423    
   0.00000000       0.00000000       0.00000000       33.8258743       1.71958423    
 -0.679867983      -1.77955198      -0.00000000       33.8258743       1.71958423    
   0.00000000       0.00000000       0.00000000       33.7412643       1.71993339    
 -0.791365981      -1.73284900      -0.00000000       33.7412643       1.71993339    
 -0.845947027      -1.70686805      -0.00000000       33.7412643       1.71993339    
 -0.899676025      -1.67916906      -0.00000000       33.7412643       1.71993339    
 -0.623063982      -1.80022705      -0.00000000       33.8911057       1.71931553    
 -0.679867983      -1.77955198      -0.00000000       33.8911057       1.71931553    
   0.00000000       0.00000000       0.00000000       33.8911057       1.71931553    
 -0.565632999      -1.81908906      -0.00000000       33.8911057       1.71931553    
 -0.390157014      -1.86461902      -0.00000000       33.9746780       1.71897244    
 -0.449120998      -1.85130095      -0.00000000       33.9746780       1.71897244    
   0.00000000       0.00000000       0.00000000       33.9746780       1.71897244    
 -0.330799997      -1.87605906      -0.00000000       33.9746780       1.71897244    
   0.00000000       0.00000000       0.00000000       33.9398537       1.71911514    
 -0.449120998      -1.85130095      -0.00000000       33.9398537       1.71911514    
 -0.507632971      -1.83611906      -0.00000000       33.9398537       1.71911514    
 -0.565632999      -1.81908906      -0.00000000       33.9398537       1.71911514    
 -0.271109998      -1.88560998      -0.00000000       33.9985352       1.71887493    
 -0.330799997      -1.87605906      -0.00000000       33.9985352       1.71887493    
   0.00000000       0.00000000       0.00000000       33.9985352       1.71887493    
 -0.211146995      -1.89326203      -0.00000000       33.9985352       1.71887493    
  -3.02249994E-02  -1.90476000      -0.00000000       34.0182800       1.71879458    
  -9.06440020E-02  -1.90284204      -0.00000000       34.0182800       1.71879458    
   0.00000000       0.00000000       0.00000000       34.0182800       1.71879458    
   3.02249994E-02  -1.90476000      -0.00000000       34.0182800       1.71879458    
   0.00000000       0.00000000       0.00000000       34.0122108       1.71881914    
  -9.06440020E-02  -1.90284204      -0.00000000       34.0122108       1.71881914    
 -0.150970995      -1.89900804      -0.00000000       34.0122108       1.71881914    
 -0.211146995      -1.89326203      -0.00000000       34.0122108       1.71881914    
   9.06440020E-02  -1.90284204      -0.00000000       34.0177689       1.71879649    
   3.02249994E-02  -1.90476000      -0.00000000       34.0177689       1.71879649    
   0.00000000       0.00000000       0.00000000       34.0177689       1.71879649    
  0.150970995      -1.89900804      -0.00000000       34.0177689       1.71879649    
  0.330799997      -1.87605906      -0.00000000       33.9932289       1.71889699    
  0.271109998      -1.88560998      -0.00000000       33.9932289       1.71889699    
   0.00000000       0.00000000       0.00000000       33.9932289       1.71889699    
  0.390157014      -1.86461902      -0.00000000       33.9932289       1.71889699    
   0.00000000       0.00000000       0.00000000       34.0100174       1.71882832    
  0.271109998      -1.88560998      -0.00000000       34.0100174       1.71882832    
  0.211146995      -1.89326203      -0.00000000       34.0100174       1.71882832    
  0.150970995      -1.89900804      -0.00000000       34.0100174       1.71882832    
  0.449120998      -1.85130095      -0.00000000       33.9661942       1.71900773    
  0.390157014      -1.86461902      -0.00000000       33.9661942       1.71900773    
   0.00000000       0.00000000       0.00000000       33.9661942       1.71900773    
  0.507632971      -1.83611906      -0.00000000       33.9661942       1.71900773    
  0.679867983      -1.77955198      -0.00000000       33.8740845       1.71938670    
  0.623063982      -1.80022705      -0.00000000       33.8740845       1.71938670    
   0.00000000       0.00000000       0.00000000       33.8740845       1.71938670    
  0.735987008      -1.75708497      -0.00000000       33.8740845       1.71938670    
   0.00000000       0.00000000       0.00000000       33.9276657       1.71916628    
  0.623063982      -1.80022705      -0.00000000       33.9276657       1.71916628    
  0.565632999      -1.81908906      -0.00000000       33.9276657       1.71916628    
  0.507632971      -1.83611906      -0.00000000       33.9276657       1.71916628    
  0.791365981      -1.73284900      -0.00000000       33.8031120       1.71967995    
  0.735987008      -1.75708497      -0.00000000       33.8031120       1.71967995    
   0.00000000       0.00000000       0.00000000       33.8031120       1.71967995    
  0.845947027      -1.70686805      -0.00000000       33.8031120       1.71967995    
   1.00436401      -1.61872697      -0.00000000       33.6070442       1.72049177    
  0.952499986      -1.64977801      -0.00000000       33.6070442       1.72049177    
   0.00000000       0.00000000       0.00000000       33.6070442       1.72049177    
   1.05521798      -1.58604598      -0.00000000       33.6070442       1.72049177    
   0.00000000       0.00000000       0.00000000       33.7141571       1.72004807    
  0.952499986      -1.64977801      -0.00000000       33.7141571       1.72004807    
  0.899676025      -1.67916906      -0.00000000       33.7141571       1.72004807    
  0.845947027      -1.70686805      -0.00000000       33.7141571       1.72004807    
   1.10500801      -1.55176699      -0.00000000       33.4845085       1.72099936    
   1.05521798      -1.58604598      -0.00000000       33.4845085       1.72099936    
   0.00000000       0.00000000       0.00000000       33.4845085       1.72099936    
   1.15368605      -1.51592600      -0.00000000       33.4845085       1.72099936    
   1.29255998      -1.39939702      -0.00000000       33.2287712       1.72205400    
   1.24750996      -1.43970299      -0.00000000       33.2287712       1.72205400    
   0.00000000       0.00000000       0.00000000       33.2287712       1.72205400    
   1.33631003      -1.35768199      -0.00000000       33.2287712       1.72205400    
   0.00000000       0.00000000       0.00000000       33.3532944       1.72154212    
   1.24750996      -1.43970299      -0.00000000       33.3532944       1.72154212    
   1.20120299      -1.47855902      -0.00000000       33.3532944       1.72154212    