 VARIABLES="X" "Y" "Z" "abs(p) (Pa)" "angle(p) (rad)"
ZONE N=    802,E =     800, F=FEPOINT, ET=QUADRILATERAL
   1.90499997       0.00000000      -0.00000000       1851.29907       1.57477939    
   1.90404105      -6.04420006E-02  -0.00000000       1851.29907       1.57477939    
   0.00000000       0.00000000       0.00000000       1851.29907       1.57477939    
   1.90404105       6.04420006E-02  -0.00000000       1851.29907       1.57477939    
   1.88967395      0.241159007      -0.00000000       1848.88184       1.57476461    
   1.89637399      0.181081995      -0.00000000       1848.88184       1.57476461    
   0.00000000       0.00000000       0.00000000       1848.88184       1.57476461    
   1.88107097      0.300992996      -0.00000000       1848.88184       1.57476461    
   0.00000000       0.00000000       0.00000000       1850.98669       1.57477510    
   1.89637399      0.181081995      -0.00000000       1850.98669       1.57477510    
   1.90116501      0.120823003      -0.00000000       1850.98669       1.57477510    
   1.90404105       6.04420006E-02  -0.00000000       1850.98669       1.57477510    
   1.87057400      0.360523999      -0.00000000       1845.66187       1.57474673    
   1.88107097      0.300992996      -0.00000000       1845.66187       1.57474673    
   0.00000000       0.00000000       0.00000000       1845.66187       1.57474673    
   1.85819399      0.419692010      -0.00000000       1845.66187       1.57474673    
   1.80988598      0.594424009      -0.00000000       1845.42737       1.57466090    
   1.82783401      0.536701024      -0.00000000       1845.42737       1.57466090    
   0.00000000       0.00000000       0.00000000       1845.42737       1.57466090    
   1.79011405      0.651548028      -0.00000000       1845.42737       1.57466090    
   0.00000000       0.00000000       0.00000000       1844.12036       1.57471287    
   1.82783401      0.536701024      -0.00000000       1844.12036       1.57471287    
   1.84394205      0.478437006      -0.00000000       1844.12036       1.57471287    
   1.85819399      0.419692010      -0.00000000       1844.12036       1.57471287    
   1.76854098      0.708016992      -0.00000000       1851.01208       1.57458639    
   1.79011405      0.651548028      -0.00000000       1851.01208       1.57458639    
   0.00000000       0.00000000       0.00000000       1851.01208       1.57458639    
   1.74518704      0.763773024      -0.00000000       1851.01208       1.57458639    
   1.66468298      0.926204979      -0.00000000       1878.72205       1.57436323    
   1.69323206      0.872922003      -0.00000000       1878.72205       1.57436323    
   0.00000000       0.00000000       0.00000000       1878.72205       1.57436323    
   1.63445795      0.978555024      -0.00000000       1878.72205       1.57436323    
   0.00000000       0.00000000       0.00000000       1862.07410       1.57448697    
   1.69323206      0.872922003      -0.00000000       1862.07410       1.57448697    
   1.72007501      0.818759024      -0.00000000       1862.07410       1.57448697    
   1.74518704      0.763773024      -0.00000000       1862.07410       1.57448697    
   1.60258806       1.02992105      -0.00000000       1898.77661       1.57422185    
   1.63445795      0.978555024      -0.00000000       1898.77661       1.57422185    
   0.00000000       0.00000000       0.00000000       1898.77661       1.57422185    
   1.56910396       1.08024895      -0.00000000       1898.77661       1.57422185    
   1.45931494       1.22450995      -0.00000000       1928.19495       1.57393932    
   1.49743104       1.17759299      -0.00000000       1928.19495       1.57393932    
   0.00000000       0.00000000       0.00000000       1928.19495       1.57393932    
   1.41972899       1.27019501      -0.00000000       1928.19495       1.57393932    
   0.00000000       0.00000000       0.00000000       1918.08704       1.57407379    
   1.49743104       1.17759299      -0.00000000       1918.08704       1.57407379    
   1.53403997       1.12949002      -0.00000000       1918.08704       1.57407379    
   1.56910396       1.08024895      -0.00000000       1918.08704       1.57407379    
   1.37871301       1.31459999      -0.00000000       1893.79089       1.57390356    
   1.41972899       1.27019501      -0.00000000       1893.79089       1.57390356    
   0.00000000       0.00000000       0.00000000       1893.79089       1.57390356    
   1.33631003       1.35768199      -0.00000000       1893.79089       1.57390356    
   1.20120299       1.47855902      -0.00000000       1601.25562       1.57444251    
   1.24750996       1.43970299      -0.00000000       1601.25562       1.57444251    
   0.00000000       0.00000000       0.00000000       1601.25562       1.57444251    
   1.15368605       1.51592600      -0.00000000       1601.25562       1.57444251    
   0.00000000       0.00000000       0.00000000       1770.08704       1.57409227    
   1.24750996       1.43970299      -0.00000000       1770.08704       1.57409227    
   1.29255998       1.39939702      -0.00000000       1770.08704       1.57409227    
   1.33631003       1.35768199      -0.00000000       1770.08704       1.57409227    
   1.10500801       1.55176699      -0.00000000       1425.91895       1.57488883    
   1.15368605       1.51592600      -0.00000000       1425.91895       1.57488883    
   0.00000000       0.00000000       0.00000000       1425.91895       1.57488883    
   1.05521798       1.58604598      -0.00000000       1425.91895       1.57488883    
  0.899676025       1.67916906      -0.00000000       1088.22229       1.57609773    
  0.952499986       1.64977801      -0.00000000       1088.22229       1.57609773    
   0.00000000       0.00000000       0.00000000       1088.22229       1.57609773    
  0.845947027       1.70686805      -0.00000000       1088.22229       1.57609773    
   0.00000000       0.00000000       0.00000000       1253.22583       1.57543552    
  0.952499986       1.64977801      -0.00000000       1253.22583       1.57543552    
   1.00436401       1.61872697      -0.00000000       1253.22583       1.57543552    
   1.05521798       1.58604598      -0.00000000       1253.22583       1.57543552    
  0.791365981       1.73284900      -0.00000000       931.545654       1.57691860    
  0.845947027       1.70686805      -0.00000000       931.545654       1.57691860    
   0.00000000       0.00000000       0.00000000       931.545654       1.57691860    
  0.735987008       1.75708497      -0.00000000       931.545654       1.57691860    
  0.565632999       1.81908906      -0.00000000       640.048767       1.57941628    
  0.623063982       1.80022705      -0.00000000       640.048767       1.57941628    
   0.00000000       0.00000000       0.00000000       640.048767       1.57941628    
  0.507632971       1.83611906      -0.00000000       640.048767       1.57941628    
   0.00000000       0.00000000       0.00000000       782.577271       1.57797492    
  0.623063982       1.80022705      -0.00000000       782.577271       1.57797492    
  0.679867983       1.77955198      -0.00000000       782.577271       1.57797492    
  0.735987008       1.75708497      -0.00000000       782.577271       1.57797492    
  0.449120998       1.85130095      -0.00000000       502.109619       1.58156228    
  0.507632971       1.83611906      -0.00000000       502.109619       1.58156228    
   0.00000000       0.00000000       0.00000000       502.109619       1.58156228    
  0.390157014       1.86461902      -0.00000000       502.109619       1.58156228    
  0.211146995       1.89326203      -0.00000000       234.421524       1.59281027    
  0.271109998       1.88560998      -0.00000000       234.421524       1.59281027    
   0.00000000       0.00000000       0.00000000       234.421524       1.59281027    
  0.150970995       1.89900804      -0.00000000       234.421524       1.59281027    
   0.00000000       0.00000000       0.00000000       367.437042       1.58518112    
  0.271109998       1.88560998      -0.00000000       367.437042       1.58518112    
  0.330799997       1.87605906      -0.00000000       367.437042       1.58518112    
  0.390157014       1.86461902      -0.00000000       367.437042       1.58518112    
   9.06440020E-02   1.90284204      -0.00000000       103.143631       1.61959422    
  0.150970995       1.89900804      -0.00000000       103.143631       1.61959422    
   0.00000000       0.00000000       0.00000000       103.143631       1.61959422    
   3.02249994E-02   1.90476000      -0.00000000       103.143631       1.61959422    
 -0.150970995       1.89900804      -0.00000000       159.526993      -1.60070884    
  -9.06440020E-02   1.90284204      -0.00000000       159.526993      -1.60070884    
   0.00000000       0.00000000       0.00000000       159.526993      -1.60070884    
 -0.211146995       1.89326203      -0.00000000       159.526993      -1.60070884    
   0.00000000       0.00000000       0.00000000       28.2418156      -1.74520648    
  -9.06440020E-02   1.90284204      -0.00000000       28.2418156      -1.74520648    
  -3.02249994E-02   1.90476000      -0.00000000       28.2418156      -1.74520648    
   3.02249994E-02   1.90476000      -0.00000000       28.2418156      -1.74520648    
 -0.271109998       1.88560998      -0.00000000       292.537842      -1.58667195    
 -0.211146995       1.89326203      -0.00000000       292.537842      -1.58667195    
   0.00000000       0.00000000       0.00000000       292.537842      -1.58667195    
 -0.330799997       1.87605906      -0.00000000       292.537842      -1.58667195    
 -0.507632971       1.83611906      -0.00000000       565.844421      -1.57858205    
 -0.449120998       1.85130095      -0.00000000       565.844421      -1.57858205    
   0.00000000       0.00000000       0.00000000       565.844421      -1.57858205    
 -0.565632999       1.81908906      -0.00000000       565.844421      -1.57858205    
   0.00000000       0.00000000       0.00000000       427.298950      -1.58137715    
 -0.449120998       1.85130095      -0.00000000       427.298950      -1.58137715    
 -0.390157014       1.86461902      -0.00000000       427.298950      -1.58137715    
 -0.330799997       1.87605906      -0.00000000       427.298950      -1.58137715    
 -0.623063982       1.80022705      -0.00000000       709.074280      -1.57686067    
 -0.565632999       1.81908906      -0.00000000       709.074280      -1.57686067    
   0.00000000       0.00000000       0.00000000       709.074280      -1.57686067    
 -0.679867983       1.77955198      -0.00000000       709.074280      -1.57686067    
 -0.845947027       1.70686805      -0.00000000       1015.41077      -1.57486641    
 -0.791365981       1.73284900      -0.00000000       1015.41077      -1.57486641    
   0.00000000       0.00000000       0.00000000       1015.41077      -1.57486641    
 -0.899676025       1.67916906      -0.00000000       1015.41077      -1.57486641    
   0.00000000       0.00000000       0.00000000       858.499512      -1.57569849    
 -0.791365981       1.73284900      -0.00000000       858.499512      -1.57569849    
 -0.735987008       1.75708497      -0.00000000       858.499512      -1.57569849    
 -0.679867983       1.77955198      -0.00000000       858.499512      -1.57569849    
 -0.952499986       1.64977801      -0.00000000       1179.46191      -1.57425189    
 -0.899676025       1.67916906      -0.00000000       1179.46191      -1.57425189    
   0.00000000       0.00000000       0.00000000       1179.46191      -1.57425189    
  -1.00436401       1.61872697      -0.00000000       1179.46191      -1.57425189    
  -1.15368605       1.51592600      -0.00000000       1517.34717      -1.57344019    
  -1.10500801       1.55176699      -0.00000000       1517.34717      -1.57344019    
   0.00000000       0.00000000       0.00000000       1517.34717      -1.57344019    
  -1.20120299       1.47855902      -0.00000000       1517.34717      -1.57344019    
   0.00000000       0.00000000       0.00000000       1348.24255      -1.57379007    
  -1.10500801       1.55176699      -0.00000000       1348.24255      -1.57379007    
  -1.05521798       1.58604598      -0.00000000       1348.24255      -1.57379007    
  -1.00436401       1.61872697      -0.00000000       1348.24255      -1.57379007    
  -1.24750996       1.43970299      -0.00000000       1678.41077      -1.57317436    
  -1.20120299       1.47855902      -0.00000000       1678.41077      -1.57317436    
   0.00000000       0.00000000       0.00000000       1678.41077      -1.57317436    
  -1.29255998       1.39939702      -0.00000000       1678.41077      -1.57317436    
  -1.41972899       1.27019501      -0.00000000       1829.23462      -1.57284617    
  -1.37871301       1.31459999      -0.00000000       1829.23462      -1.57284617    
   0.00000000       0.00000000       0.00000000       1829.23462      -1.57284617    
  -1.45931494       1.22450995      -0.00000000       1829.23462      -1.57284617    
   0.00000000       0.00000000       0.00000000       1796.92285      -1.57298076    
  -1.37871301       1.31459999      -0.00000000       1796.92285      -1.57298076    
  -1.33631003       1.35768199      -0.00000000       1796.92285      -1.57298076    
  -1.29255998       1.39939702      -0.00000000       1796.92285      -1.57298076    
  -1.49743104       1.17759299      -0.00000000       1817.55005      -1.57273722    
  -1.45931494       1.22450995      -0.00000000       1817.55005      -1.57273722    
   0.00000000       0.00000000       0.00000000       1817.55005      -1.57273722    
  -1.53403997       1.12949002      -0.00000000       1817.55005      -1.57273722    
  -1.63445795      0.978555024      -0.00000000       1781.40479      -1.57254863    
  -1.60258806       1.02992105      -0.00000000       1781.40479      -1.57254863    
   0.00000000       0.00000000       0.00000000       1781.40479      -1.57254863    
  -1.66468298      0.926204979      -0.00000000       1781.40479      -1.57254863    
   0.00000000       0.00000000       0.00000000       1798.72559      -1.57263887    
  -1.60258806       1.02992105      -0.00000000       1798.72559      -1.57263887    
  -1.56910396       1.08024895      -0.00000000       1798.72559      -1.57263887    
  -1.53403997       1.12949002      -0.00000000       1798.72559      -1.57263887    
  -1.69323206      0.872922003      -0.00000000       1769.69104      -1.57246602    
  -1.66468298      0.926204979      -0.00000000       1769.69104      -1.57246602    
   0.00000000       0.00000000       0.00000000       1769.69104      -1.57246602    
  -1.72007501      0.818759024      -0.00000000       1769.69104      -1.57246602    
  -1.79011405      0.651548028      -0.00000000       1763.37329      -1.57232642    
  -1.76854098      0.708016992      -0.00000000       1763.37329      -1.57232642    
   0.00000000       0.00000000       0.00000000       1763.37329      -1.57232642    
  -1.80988598      0.594424009      -0.00000000       1763.37329      -1.57232642    
   0.00000000       0.00000000       0.00000000       1763.88025      -1.57239151    
  -1.76854098      0.708016992      -0.00000000       1763.88025      -1.57239151    
  -1.74518704      0.763773024      -0.00000000       1763.88025      -1.57239151    
  -1.72007501      0.818759024      -0.00000000       1763.88025      -1.57239151    
  -1.82783401      0.536701024      -0.00000000       1766.75537      -1.57227159    
  -1.80988598      0.594424009      -0.00000000       1766.75537      -1.57227159    
   0.00000000       0.00000000       0.00000000       1766.75537      -1.57227159    
  -1.84394205      0.478437006      -0.00000000       1766.75537      -1.57227159    
  -1.88107097      0.300992996      -0.00000000       1778.85559      -1.57219315    
  -1.87057400      0.360523999      -0.00000000       1778.85559      -1.57219315    
   0.00000000       0.00000000       0.00000000       1778.85559      -1.57219315    
  -1.88967395      0.241159007      -0.00000000       1778.85559      -1.57219315    
   0.00000000       0.00000000       0.00000000       1772.56189      -1.57222688    
  -1.87057400      0.360523999      -0.00000000       1772.56189      -1.57222688    
  -1.85819399      0.419692010      -0.00000000       1772.56189      -1.57222688    
  -1.84394205      0.478437006      -0.00000000       1772.56189      -1.57222688    
  -1.89637399      0.181081995      -0.00000000       1783.49841      -1.57217085    
  -1.88967395      0.241159007      -0.00000000       1783.49841      -1.57217085    
   0.00000000       0.00000000       0.00000000       1783.49841      -1.57217085    
  -1.90116501      0.120823003      -0.00000000       1783.49841      -1.57217085    
  -1.90404105      -6.04420006E-02  -0.00000000       1786.65869      -1.57215989    
  -1.90499997       0.00000000      -0.00000000       1786.65869      -1.57215989    
   0.00000000       0.00000000       0.00000000       1786.65869      -1.57215989    
  -1.90116501     -0.120823003      -0.00000000       1786.65869      -1.57215989    
   0.00000000       0.00000000       0.00000000       1786.26172      -1.57215977    
  -1.90499997       0.00000000      -0.00000000       1786.26172      -1.57215977    
  -1.90404105       6.04420006E-02  -0.00000000       1786.26172      -1.57215977    
  -1.90116501      0.120823003      -0.00000000       1786.26172      -1.57215977    
  -1.89637399     -0.181081995      -0.00000000       1784.78894      -1.57217097    
  -1.90116501     -0.120823003      -0.00000000       1784.78894      -1.57217097    
   0.00000000       0.00000000       0.00000000       1784.78894      -1.57217097    
  -1.88967395     -0.241159007      -0.00000000       1784.78894      -1.57217097    
  -1.85819399     -0.419692010      -0.00000000       1776.30737      -1.57222629    
  -1.87057400     -0.360523999      -0.00000000       1776.30737      -1.57222629    
   0.00000000       0.00000000       0.00000000       1776.30737      -1.57222629    
  -1.84394205     -0.478437006      -0.00000000       1776.30737      -1.57222629    
   0.00000000       0.00000000       0.00000000       1780.97754      -1.57219303    
  -1.87057400     -0.360523999      -0.00000000       1780.97754      -1.57219303    
  -1.88107097     -0.300992996      -0.00000000       1780.97754      -1.57219303    
  -1.88967395     -0.241159007      -0.00000000       1780.97754      -1.57219303    
  -1.82783401     -0.536701024      -0.00000000       1773.27661      -1.57227004    
  -1.84394205     -0.478437006      -0.00000000       1773.27661      -1.57227004    
   0.00000000       0.00000000       0.00000000       1773.27661      -1.57227004    
  -1.80988598     -0.594424009      -0.00000000       1773.27661      -1.57227004    
  -1.74518704     -0.763773024      -0.00000000       1775.68018      -1.57238770    
  -1.76854098     -0.708016992      -0.00000000       1775.68018      -1.57238770    
   0.00000000       0.00000000       0.00000000       1775.68018      -1.57238770    
  -1.72007501     -0.818759024      -0.00000000       1775.68018      -1.57238770    
   0.00000000       0.00000000       0.00000000       1772.58716      -1.57232392    
  -1.76854098     -0.708016992      -0.00000000       1772.58716      -1.57232392    
  -1.79011405     -0.651548028      -0.00000000       1772.58716      -1.57232392    
  -1.80988598     -0.594424009      -0.00000000       1772.58716      -1.57232392    
  -1.69323206     -0.872922003      -0.00000000       1783.88281      -1.57246053    
  -1.72007501     -0.818759024      -0.00000000       1783.88281      -1.57246053    
   0.00000000       0.00000000       0.00000000       1783.88281      -1.57246053    
  -1.66468298     -0.926204979      -0.00000000       1783.88281      -1.57246053    
  -1.56910396      -1.08024895      -0.00000000       1813.64075      -1.57263124    
  -1.60258806      -1.02992105      -0.00000000       1813.64075      -1.57263124    
   0.00000000       0.00000000       0.00000000       1813.64075      -1.57263124    
  -1.53403997      -1.12949002      -0.00000000       1813.64075      -1.57263124    
   0.00000000       0.00000000       0.00000000       1797.15002      -1.57254183    
  -1.60258806      -1.02992105      -0.00000000       1797.15002      -1.57254183    
  -1.63445795     -0.978555024      -0.00000000       1797.15002      -1.57254183    
  -1.66468298     -0.926204979      -0.00000000       1797.15002      -1.57254183    
  -1.49743104      -1.17759299      -0.00000000       1829.17725      -1.57273030    
  -1.53403997      -1.12949002      -0.00000000       1829.17725      -1.57273030    
   0.00000000       0.00000000       0.00000000       1829.17725      -1.57273030    
  -1.45931494      -1.22450995      -0.00000000       1829.17725      -1.57273030    
  -1.33631003      -1.35768199      -0.00000000       1797.71533      -1.57298017    
  -1.37871301      -1.31459999      -0.00000000       1797.71533      -1.57298017    
   0.00000000       0.00000000       0.00000000       1797.71533      -1.57298017    
  -1.29255998      -1.39939702      -0.00000000       1797.71533      -1.57298017    
   0.00000000       0.00000000       0.00000000       1835.36597      -1.57284176    
  -1.37871301      -1.31459999      -0.00000000       1835.36597      -1.57284176    
  -1.41972899      -1.27019501      -0.00000000       1835.36597      -1.57284176    
  -1.45931494      -1.22450995      -0.00000000       1835.36597      -1.57284176    
  -1.24750996      -1.43970299      -0.00000000       1673.43213      -1.57318008    
  -1.29255998      -1.39939702      -0.00000000       1673.43213      -1.57318008    
   0.00000000       0.00000000       0.00000000       1673.43213      -1.57318008    
  -1.20120299      -1.47855902      -0.00000000       1673.43213      -1.57318008    
  -1.05521798      -1.58604598      -0.00000000       1332.03943      -1.57381952    
  -1.10500801      -1.55176699      -0.00000000       1332.03943      -1.57381952    
   0.00000000       0.00000000       0.00000000       1332.03943      -1.57381952    
  -1.00436401      -1.61872697      -0.00000000       1332.03943      -1.57381952    
   0.00000000       0.00000000       0.00000000       1505.88928      -1.57345617    
  -1.10500801      -1.55176699      -0.00000000       1505.88928      -1.57345617    
  -1.15368605      -1.51592600      -0.00000000       1505.88928      -1.57345617    
  -1.20120299      -1.47855902      -0.00000000       1505.88928      -1.57345617    
 -0.952499986      -1.64977801      -0.00000000       1160.70996      -1.57429874    
  -1.00436401      -1.61872697      -0.00000000       1160.70996      -1.57429874    
   0.00000000       0.00000000       0.00000000       1160.70996      -1.57429874    
 -0.899676025      -1.67916906      -0.00000000       1160.70996      -1.57429874    
 -0.735987008      -1.75708497      -0.00000000       841.293030      -1.57578957    
 -0.791365981      -1.73284900      -0.00000000       841.293030      -1.57578957    
   0.00000000       0.00000000       0.00000000       841.293030      -1.57578957    
 -0.679867983      -1.77955198      -0.00000000       841.293030      -1.57578957    
   0.00000000       0.00000000       0.00000000       996.905701      -1.57493281    
 -0.791365981      -1.73284900      -0.00000000       996.905701      -1.57493281    
 -0.845947027      -1.70686805      -0.00000000       996.905701      -1.57493281    
 -0.899676025      -1.67916906      -0.00000000       996.905701      -1.57493281    
 -0.623063982      -1.80022705      -0.00000000       693.161804      -1.57699180    
 -0.679867983      -1.77955198      -0.00000000       693.161804      -1.57699180    
   0.00000000       0.00000000       0.00000000       693.161804      -1.57699180    
 -0.565632999      -1.81908906      -0.00000000       693.161804      -1.57699180    
 -0.390157014      -1.86461902      -0.00000000       413.941101      -1.58171237    
 -0.449120998      -1.85130095      -0.00000000       413.941101      -1.58171237    
   0.00000000       0.00000000       0.00000000       413.941101      -1.58171237    
 -0.330799997      -1.87605906      -0.00000000       413.941101      -1.58171237    
   0.00000000       0.00000000       0.00000000       551.309021      -1.57878006    
 -0.449120998      -1.85130095      -0.00000000       551.309021      -1.57878006    
 -0.507632971      -1.83611906      -0.00000000       551.309021      -1.57878006    
 -0.565632999      -1.81908906      -0.00000000       551.309021      -1.57878006    
 -0.271109998      -1.88560998      -0.00000000       279.756531      -1.58739126    
 -0.330799997      -1.87605906      -0.00000000       279.756531      -1.58739126    
   0.00000000       0.00000000       0.00000000       279.756531      -1.58739126    
 -0.211146995      -1.89326203      -0.00000000       279.756531      -1.58739126    
  -3.02249994E-02  -1.90476000      -0.00000000       16.6182213      -1.87009656    
  -9.06440020E-02  -1.90284204      -0.00000000       16.6182213      -1.87009656    
   0.00000000       0.00000000       0.00000000       16.6182213      -1.87009656    
   3.02249994E-02  -1.90476000      -0.00000000       16.6182213      -1.87009656    
   0.00000000       0.00000000       0.00000000       147.124420      -1.60322106    
  -9.06440020E-02  -1.90284204      -0.00000000       147.124420      -1.60322106    
 -0.150970995      -1.89900804      -0.00000000       147.124420      -1.60322106    
 -0.211146995      -1.89326203      -0.00000000       147.124420      -1.60322106    
   9.06440020E-02  -1.90284204      -0.00000000       115.131638       1.61449945    
   3.02249994E-02  -1.90476000      -0.00000000       115.131638       1.61449945    
   0.00000000       0.00000000       0.00000000       115.131638       1.61449945    
  0.150970995      -1.89900804      -0.00000000       115.131638       1.61449945    
  0.330799997      -1.87605906      -0.00000000       380.519135       1.58468044    
  0.271109998      -1.88560998      -0.00000000       380.519135       1.58468044    
   0.00000000       0.00000000       0.00000000       380.519135       1.58468044    
  0.390157014      -1.86461902      -0.00000000       380.519135       1.58468044    
   0.00000000       0.00000000       0.00000000       247.017059       1.59167969    
  0.271109998      -1.88560998      -0.00000000       247.017059       1.59167969    
  0.211146995      -1.89326203      -0.00000000       247.017059       1.59167969    
  0.150970995      -1.89900804      -0.00000000       247.017059       1.59167969    
  0.449120998      -1.85130095      -0.00000000       515.911072       1.58126664    
  0.390157014      -1.86461902      -0.00000000       515.911072       1.58126664    
   0.00000000       0.00000000       0.00000000       515.911072       1.58126664    
  0.507632971      -1.83611906      -0.00000000       515.911072       1.58126664    
  0.679867983      -1.77955198      -0.00000000       799.301941       1.57781541    
  0.623063982      -1.80022705      -0.00000000       799.301941       1.57781541    
   0.00000000       0.00000000       0.00000000       799.301941       1.57781541    
  0.735987008      -1.75708497      -0.00000000       799.301941       1.57781541    
   0.00000000       0.00000000       0.00000000       655.212158       1.57920861    
  0.623063982      -1.80022705      -0.00000000       655.212158       1.57920861    
  0.565632999      -1.81908906      -0.00000000       655.212158       1.57920861    
  0.507632971      -1.83611906      -0.00000000       655.212158       1.57920861    
  0.791365981      -1.73284900      -0.00000000       949.853455       1.57678974    
  0.735987008      -1.75708497      -0.00000000       949.853455       1.57678974    
   0.00000000       0.00000000       0.00000000       949.853455       1.57678974    
  0.845947027      -1.70686805      -0.00000000       949.853455       1.57678974    
   1.00436401      -1.61872697      -0.00000000       1273.26904       1.57535183    
  0.952499986      -1.64977801      -0.00000000       1273.26904       1.57535183    
   0.00000000       0.00000000       0.00000000       1273.26904       1.57535183    
   1.05521798      -1.58604598      -0.00000000       1273.26904       1.57535183    
   0.00000000       0.00000000       0.00000000       1107.91577       1.57599258    
  0.952499986      -1.64977801      -0.00000000       1107.91577       1.57599258    
  0.899676025      -1.67916906      -0.00000000       1107.91577       1.57599258    
  0.845947027      -1.70686805      -0.00000000       1107.91577       1.57599258    
   1.10500801      -1.55176699      -0.00000000       1443.48096       1.57483029    
   1.05521798      -1.58604598      -0.00000000       1443.48096       1.57483029    
   0.00000000       0.00000000       0.00000000       1443.48096       1.57483029    
   1.15368605      -1.51592600      -0.00000000       1443.48096       1.57483029    
   1.29255998      -1.39939702      -0.00000000       1776.34570       1.57407820    
   1.24750996      -1.43970299      -0.00000000       1776.34570       1.57407820    
   0.00000000       0.00000000       0.00000000       1776.34570       1.57407820    
   1.33631003      -1.35768199      -0.00000000       1776.34570       1.57407820    
   0.00000000       0.00000000       0.00000000       1614.07251       1.57440782    
   1.24750996      -1.43970299      -0.00000000       1614.07251       1.57440782    
   1.20120299      -1.47855902      -0.00000000       1614.07251       1.57440782    