 VARIABLES="X" "Y" "Z" "abs(p) (Pa)" "angle(p) (rad)"
ZONE N=    802,E =     800, F=FEPOINT, ET=QUADRILATERAL
   1.90499997       0.00000000      -0.00000000       2395.99072       1.57905364    
   1.90404105      -6.04420006E-02  -0.00000000       2395.99072       1.57905364    
   0.00000000       0.00000000       0.00000000       2395.99072       1.57905364    
   1.90404105       6.04420006E-02  -0.00000000       2395.99072       1.57905364    
   1.88967395      0.241159007      -0.00000000       2391.38647       1.57899141    
   1.89637399      0.181081995      -0.00000000       2391.38647       1.57899141    
   0.00000000       0.00000000       0.00000000       2391.38647       1.57899141    
   1.88107097      0.300992996      -0.00000000       2391.38647       1.57899141    
   0.00000000       0.00000000       0.00000000       2394.59473       1.57903922    
   1.89637399      0.181081995      -0.00000000       2394.59473       1.57903922    
   1.90116501      0.120823003      -0.00000000       2394.59473       1.57903922    
   1.90404105       6.04420006E-02  -0.00000000       2394.59473       1.57903922    
   1.87057400      0.360523999      -0.00000000       2387.98462       1.57890081    
   1.88107097      0.300992996      -0.00000000       2387.98462       1.57890081    
   0.00000000       0.00000000       0.00000000       2387.98462       1.57890081    
   1.85819399      0.419692010      -0.00000000       2387.98462       1.57890081    
   1.80988598      0.594424009      -0.00000000       2387.64966       1.57855403    
   1.82783401      0.536701024      -0.00000000       2387.64966       1.57855403    
   0.00000000       0.00000000       0.00000000       2387.64966       1.57855403    
   1.79011405      0.651548028      -0.00000000       2387.64966       1.57855403    
   0.00000000       0.00000000       0.00000000       2385.56201       1.57876146    
   1.82783401      0.536701024      -0.00000000       2385.56201       1.57876146    
   1.84394205      0.478437006      -0.00000000       2385.56201       1.57876146    
   1.85819399      0.419692010      -0.00000000       2385.56201       1.57876146    
   1.76854098      0.708016992      -0.00000000       2395.78101       1.57827139    
   1.79011405      0.651548028      -0.00000000       2395.78101       1.57827139    
   0.00000000       0.00000000       0.00000000       2395.78101       1.57827139    
   1.74518704      0.763773024      -0.00000000       2395.78101       1.57827139    
   1.66468298      0.926204979      -0.00000000       2435.62085       1.57746100    
   1.69323206      0.872922003      -0.00000000       2435.62085       1.57746100    
   0.00000000       0.00000000       0.00000000       2435.62085       1.57746100    
   1.63445795      0.978555024      -0.00000000       2435.62085       1.57746100    
   0.00000000       0.00000000       0.00000000       2411.67798       1.57790601    
   1.69323206      0.872922003      -0.00000000       2411.67798       1.57790601    
   1.72007501      0.818759024      -0.00000000       2411.67798       1.57790601    
   1.74518704      0.763773024      -0.00000000       2411.67798       1.57790601    
   1.60258806       1.02992105      -0.00000000       2466.16528       1.57694793    
   1.63445795      0.978555024      -0.00000000       2466.16528       1.57694793    
   0.00000000       0.00000000       0.00000000       2466.16528       1.57694793    
   1.56910396       1.08024895      -0.00000000       2466.16528       1.57694793    
   1.45931494       1.22450995      -0.00000000       2512.09033       1.57588816    
   1.49743104       1.17759299      -0.00000000       2512.09033       1.57588816    
   0.00000000       0.00000000       0.00000000       2512.09033       1.57588816    
   1.41972899       1.27019501      -0.00000000       2512.09033       1.57588816    
   0.00000000       0.00000000       0.00000000       2495.66455       1.57640588    
   1.49743104       1.17759299      -0.00000000       2495.66455       1.57640588    
   1.53403997       1.12949002      -0.00000000       2495.66455       1.57640588    
   1.56910396       1.08024895      -0.00000000       2495.66455       1.57640588    
   1.37871301       1.31459999      -0.00000000       2469.18530       1.57560301    
   1.41972899       1.27019501      -0.00000000       2469.18530       1.57560301    
   0.00000000       0.00000000       0.00000000       2469.18530       1.57560301    
   1.33631003       1.35768199      -0.00000000       2469.18530       1.57560301    
   1.20120299       1.47855902      -0.00000000       2085.90771       1.57642996    
   1.24750996       1.43970299      -0.00000000       2085.90771       1.57642996    
   0.00000000       0.00000000       0.00000000       2085.90771       1.57642996    
   1.15368605       1.51592600      -0.00000000       2085.90771       1.57642996    
   0.00000000       0.00000000       0.00000000       2307.73779       1.57584631    
   1.24750996       1.43970299      -0.00000000       2307.73779       1.57584631    
   1.29255998       1.39939702      -0.00000000       2307.73779       1.57584631    
   1.33631003       1.35768199      -0.00000000       2307.73779       1.57584631    
   1.10500801       1.55176699      -0.00000000       1854.97449       1.57716715    
   1.15368605       1.51592600      -0.00000000       1854.97449       1.57716715    
   0.00000000       0.00000000       0.00000000       1854.97449       1.57716715    
   1.05521798       1.58604598      -0.00000000       1854.97449       1.57716715    
  0.899676025       1.67916906      -0.00000000       1414.05518       1.57900465    
  0.952499986       1.64977801      -0.00000000       1414.05518       1.57900465    
   0.00000000       0.00000000       0.00000000       1414.05518       1.57900465    
  0.845947027       1.70686805      -0.00000000       1414.05518       1.57900465    
   0.00000000       0.00000000       0.00000000       1629.45544       1.57802224    
  0.952499986       1.64977801      -0.00000000       1629.45544       1.57802224    
   1.00436401       1.61872697      -0.00000000       1629.45544       1.57802224    
   1.05521798       1.58604598      -0.00000000       1629.45544       1.57802224    
  0.791365981       1.73284900      -0.00000000       1209.19800       1.58016086    
  0.845947027       1.70686805      -0.00000000       1209.19800       1.58016086    
   0.00000000       0.00000000       0.00000000       1209.19800       1.58016086    
  0.735987008       1.75708497      -0.00000000       1209.19800       1.58016086    
  0.565632999       1.81908906      -0.00000000       829.777161       1.58340192    
  0.623063982       1.80022705      -0.00000000       829.777161       1.58340192    
   0.00000000       0.00000000       0.00000000       829.777161       1.58340192    
  0.507632971       1.83611906      -0.00000000       829.777161       1.58340192    
   0.00000000       0.00000000       0.00000000       1015.12341       1.58156645    
  0.623063982       1.80022705      -0.00000000       1015.12341       1.58156645    
  0.679867983       1.77955198      -0.00000000       1015.12341       1.58156645    
  0.735987008       1.75708497      -0.00000000       1015.12341       1.58156645    
  0.449120998       1.85130095      -0.00000000       650.754578       1.58604670    
  0.507632971       1.83611906      -0.00000000       650.754578       1.58604670    
   0.00000000       0.00000000       0.00000000       650.754578       1.58604670    
  0.390157014       1.86461902      -0.00000000       650.754578       1.58604670    
  0.211146995       1.89326203      -0.00000000       302.716370       1.59967482    
  0.271109998       1.88560998      -0.00000000       302.716370       1.59967482    
   0.00000000       0.00000000       0.00000000       302.716370       1.59967482    
  0.150970995       1.89900804      -0.00000000       302.716370       1.59967482    
   0.00000000       0.00000000       0.00000000       475.305969       1.59046400    
  0.271109998       1.88560998      -0.00000000       475.305969       1.59046400    
  0.330799997       1.87605906      -0.00000000       475.305969       1.59046400    
  0.390157014       1.86461902      -0.00000000       475.305969       1.59046400    
   9.06440020E-02   1.90284204      -0.00000000       131.866837       1.63239110    
  0.150970995       1.89900804      -0.00000000       131.866837       1.63239110    
   0.00000000       0.00000000       0.00000000       131.866837       1.63239110    
   3.02249994E-02   1.90476000      -0.00000000       131.866837       1.63239110    
 -0.150970995       1.89900804      -0.00000000       210.137894      -1.60344648    
  -9.06440020E-02   1.90284204      -0.00000000       210.137894      -1.60344648    
   0.00000000       0.00000000       0.00000000       210.137894      -1.60344648    
 -0.211146995       1.89326203      -0.00000000       210.137894      -1.60344648    
   0.00000000       0.00000000       0.00000000       39.6951561      -1.76056027    
  -9.06440020E-02   1.90284204      -0.00000000       39.6951561      -1.76056027    
  -3.02249994E-02   1.90476000      -0.00000000       39.6951561      -1.76056027    
   3.02249994E-02   1.90476000      -0.00000000       39.6951561      -1.76056027    
 -0.271109998       1.88560998      -0.00000000       382.711609      -1.58711648    
 -0.211146995       1.89326203      -0.00000000       382.711609      -1.58711648    
   0.00000000       0.00000000       0.00000000       382.711609      -1.58711648    
 -0.330799997       1.87605906      -0.00000000       382.711609      -1.58711648    
 -0.507632971       1.83611906      -0.00000000       737.523926      -1.57771826    
 -0.449120998       1.85130095      -0.00000000       737.523926      -1.57771826    
   0.00000000       0.00000000       0.00000000       737.523926      -1.57771826    
 -0.565632999       1.81908906      -0.00000000       737.523926      -1.57771826    
   0.00000000       0.00000000       0.00000000       558.052307      -1.58093202    
 -0.449120998       1.85130095      -0.00000000       558.052307      -1.58093202    
 -0.390157014       1.86461902      -0.00000000       558.052307      -1.58093202    
 -0.330799997       1.87605906      -0.00000000       558.052307      -1.58093202    
 -0.623063982       1.80022705      -0.00000000       924.226807      -1.57578981    
 -0.565632999       1.81908906      -0.00000000       924.226807      -1.57578981    
   0.00000000       0.00000000       0.00000000       924.226807      -1.57578981    
 -0.679867983       1.77955198      -0.00000000       924.226807      -1.57578981    
 -0.845947027       1.70686805      -0.00000000       1323.48169      -1.57372594    
 -0.791365981       1.73284900      -0.00000000       1323.48169      -1.57372594    
   0.00000000       0.00000000       0.00000000       1323.48169      -1.57372594    
 -0.899676025       1.67916906      -0.00000000       1323.48169      -1.57372594    
   0.00000000       0.00000000       0.00000000       1119.18005      -1.57454824    
 -0.791365981       1.73284900      -0.00000000       1119.18005      -1.57454824    
 -0.735987008       1.75708497      -0.00000000       1119.18005      -1.57454824    
 -0.679867983       1.77955198      -0.00000000       1119.18005      -1.57454824    
 -0.952499986       1.64977801      -0.00000000       1537.01624      -1.57317543    
 -0.899676025       1.67916906      -0.00000000       1537.01624      -1.57317543    
   0.00000000       0.00000000       0.00000000       1537.01624      -1.57317543    
  -1.00436401       1.61872697      -0.00000000       1537.01624      -1.57317543    
  -1.15368605       1.51592600      -0.00000000       1981.23621      -1.57257259    
  -1.10500801       1.55176699      -0.00000000       1981.23621      -1.57257259    
   0.00000000       0.00000000       0.00000000       1981.23621      -1.57257259    
  -1.20120299       1.47855902      -0.00000000       1981.23621      -1.57257259    
   0.00000000       0.00000000       0.00000000       1758.55359      -1.57281291    
  -1.10500801       1.55176699      -0.00000000       1758.55359      -1.57281291    
  -1.05521798       1.58604598      -0.00000000       1758.55359      -1.57281291    
  -1.00436401       1.61872697      -0.00000000       1758.55359      -1.57281291    
  -1.24750996       1.43970299      -0.00000000       2192.81274      -1.57239819    
  -1.20120299       1.47855902      -0.00000000       2192.81274      -1.57239819    
   0.00000000       0.00000000       0.00000000       2192.81274      -1.57239819    
  -1.29255998       1.39939702      -0.00000000       2192.81274      -1.57239819    
  -1.41972899       1.27019501      -0.00000000       2387.47070      -1.57175756    
  -1.37871301       1.31459999      -0.00000000       2387.47070      -1.57175756    
   0.00000000       0.00000000       0.00000000       2387.47070      -1.57175756    
  -1.45931494       1.22450995      -0.00000000       2387.47070      -1.57175756    
   0.00000000       0.00000000       0.00000000       2347.42603      -1.57217300    
  -1.37871301       1.31459999      -0.00000000       2347.42603      -1.57217300    
  -1.33631003       1.35768199      -0.00000000       2347.42603      -1.57217300    
  -1.29255998       1.39939702      -0.00000000       2347.42603      -1.57217300    
  -1.49743104       1.17759299      -0.00000000       2368.68945      -1.57125235    
  -1.45931494       1.22450995      -0.00000000       2368.68945      -1.57125235    
   0.00000000       0.00000000       0.00000000       2368.68945      -1.57125235    
  -1.53403997       1.12949002      -0.00000000       2368.68945      -1.57125235    
  -1.63445795      0.978555024      -0.00000000       2313.58154      -1.57029939    
  -1.60258806       1.02992105      -0.00000000       2313.58154      -1.57029939    
   0.00000000       0.00000000       0.00000000       2313.58154      -1.57029939    
  -1.66468298      0.926204979      -0.00000000       2313.58154      -1.57029939    
   0.00000000       0.00000000       0.00000000       2339.58569      -1.57075548    
  -1.60258806       1.02992105      -0.00000000       2339.58569      -1.57075548    
  -1.56910396       1.08024895      -0.00000000       2339.58569      -1.57075548    
  -1.53403997       1.12949002      -0.00000000       2339.58569      -1.57075548    
  -1.69323206      0.872922003      -0.00000000       2295.52539      -1.56989968    
  -1.66468298      0.926204979      -0.00000000       2295.52539      -1.56989968    
   0.00000000       0.00000000       0.00000000       2295.52539      -1.56989968    
  -1.72007501      0.818759024      -0.00000000       2295.52539      -1.56989968    
  -1.79011405      0.651548028      -0.00000000       2284.71655      -1.56929088    
  -1.76854098      0.708016992      -0.00000000       2284.71655      -1.56929088    
   0.00000000       0.00000000       0.00000000       2284.71655      -1.56929088    
  -1.80988598      0.594424009      -0.00000000       2284.71655      -1.56929088    
   0.00000000       0.00000000       0.00000000       2286.17236      -1.56956267    
  -1.76854098      0.708016992      -0.00000000       2286.17236      -1.56956267    
  -1.74518704      0.763773024      -0.00000000       2286.17236      -1.56956267    
  -1.72007501      0.818759024      -0.00000000       2286.17236      -1.56956267    
  -1.82783401      0.536701024      -0.00000000       2288.96167      -1.56907940    
  -1.80988598      0.594424009      -0.00000000       2288.96167      -1.56907940    
   0.00000000       0.00000000       0.00000000       2288.96167      -1.56907940    
  -1.84394205      0.478437006      -0.00000000       2288.96167      -1.56907940    
  -1.88107097      0.300992996      -0.00000000       2303.36987      -1.56881011    
  -1.87057400      0.360523999      -0.00000000       2303.36987      -1.56881011    
   0.00000000       0.00000000       0.00000000       2303.36987      -1.56881011    
  -1.88967395      0.241159007      -0.00000000       2303.36987      -1.56881011    
   0.00000000       0.00000000       0.00000000       2296.18311      -1.56892264    
  -1.87057400      0.360523999      -0.00000000       2296.18311      -1.56892264    
  -1.85819399      0.419692010      -0.00000000       2296.18311      -1.56892264    
  -1.84394205      0.478437006      -0.00000000       2296.18311      -1.56892264    
  -1.89637399      0.181081995      -0.00000000       2310.05103      -1.56874084    
  -1.88967395      0.241159007      -0.00000000       2310.05103      -1.56874084    
   0.00000000       0.00000000       0.00000000       2310.05103      -1.56874084    
  -1.90116501      0.120823003      -0.00000000       2310.05103      -1.56874084    
  -1.90404105      -6.04420006E-02  -0.00000000       2314.36865      -1.56870997    
  -1.90499997       0.00000000      -0.00000000       2314.36865      -1.56870997    
   0.00000000       0.00000000       0.00000000       2314.36865      -1.56870997    
  -1.90116501     -0.120823003      -0.00000000       2314.36865      -1.56870997    
   0.00000000       0.00000000       0.00000000       2314.17041      -1.56870890    
  -1.90499997       0.00000000      -0.00000000       2314.17041      -1.56870890    
  -1.90404105       6.04420006E-02  -0.00000000       2314.17041      -1.56870890    
  -1.90116501      0.120823003      -0.00000000       2314.17041      -1.56870890    
  -1.89637399     -0.181081995      -0.00000000       2310.98096      -1.56874394    
  -1.90116501     -0.120823003      -0.00000000       2310.98096      -1.56874394    
   0.00000000       0.00000000       0.00000000       2310.98096      -1.56874394    
  -1.88967395     -0.241159007      -0.00000000       2310.98096      -1.56874394    
  -1.85819399     -0.419692010      -0.00000000       2301.20361      -1.56893671    
  -1.87057400     -0.360523999      -0.00000000       2301.20361      -1.56893671    
   0.00000000       0.00000000       0.00000000       2301.20361      -1.56893671    
  -1.84394205     -0.478437006      -0.00000000       2301.20361      -1.56893671    
   0.00000000       0.00000000       0.00000000       2306.41357      -1.56881940    
  -1.87057400     -0.360523999      -0.00000000       2306.41357      -1.56881940    
  -1.88107097     -0.300992996      -0.00000000       2306.41357      -1.56881940    
  -1.88967395     -0.241159007      -0.00000000       2306.41357      -1.56881940    
  -1.82783401     -0.536701024      -0.00000000       2296.55591      -1.56910014    
  -1.84394205     -0.478437006      -0.00000000       2296.55591      -1.56910014    
   0.00000000       0.00000000       0.00000000       2296.55591      -1.56910014    
  -1.80988598     -0.594424009      -0.00000000       2296.55591      -1.56910014    
  -1.74518704     -0.763773024      -0.00000000       2301.30273      -1.56959772    
  -1.76854098     -0.708016992      -0.00000000       2301.30273      -1.56959772    
   0.00000000       0.00000000       0.00000000       2301.30273      -1.56959772    
  -1.72007501     -0.818759024      -0.00000000       2301.30273      -1.56959772    
   0.00000000       0.00000000       0.00000000       2296.15796      -1.56931961    
  -1.76854098     -0.708016992      -0.00000000       2296.15796      -1.56931961    
  -1.79011405     -0.651548028      -0.00000000       2296.15796      -1.56931961    
  -1.80988598     -0.594424009      -0.00000000       2296.15796      -1.56931961    
  -1.69323206     -0.872922003      -0.00000000       2313.86548      -1.56993818    
  -1.72007501     -0.818759024      -0.00000000       2313.86548      -1.56993818    
   0.00000000       0.00000000       0.00000000       2313.86548      -1.56993818    
  -1.66468298     -0.926204979      -0.00000000       2313.86548      -1.56993818    
  -1.56910396      -1.08024895      -0.00000000       2359.55615      -1.57078636    
  -1.60258806      -1.02992105      -0.00000000       2359.55615      -1.57078636    
   0.00000000       0.00000000       0.00000000       2359.55615      -1.57078636    
  -1.53403997      -1.12949002      -0.00000000       2359.55615      -1.57078636    
   0.00000000       0.00000000       0.00000000       2333.81030      -1.57033682    
  -1.60258806      -1.02992105      -0.00000000       2333.81030      -1.57033682    
  -1.63445795     -0.978555024      -0.00000000       2333.81030      -1.57033682    
  -1.66468298     -0.926204979      -0.00000000       2333.81030      -1.57033682    
  -1.49743104      -1.17759299      -0.00000000       2383.87012      -1.57126904    
  -1.53403997      -1.12949002      -0.00000000       2383.87012      -1.57126904    
   0.00000000       0.00000000       0.00000000       2383.87012      -1.57126904    
  -1.45931494      -1.22450995      -0.00000000       2383.87012      -1.57126904    
  -1.33631003      -1.35768199      -0.00000000       2348.09229      -1.57216954    
  -1.37871301      -1.31459999      -0.00000000       2348.09229      -1.57216954    
   0.00000000       0.00000000       0.00000000       2348.09229      -1.57216954    
  -1.29255998      -1.39939702      -0.00000000       2348.09229      -1.57216954    
   0.00000000       0.00000000       0.00000000       2395.18799      -1.57176101    
  -1.37871301      -1.31459999      -0.00000000       2395.18799      -1.57176101    
  -1.41972899      -1.27019501      -0.00000000       2395.18799      -1.57176101    
  -1.45931494      -1.22450995      -0.00000000       2395.18799      -1.57176101    
  -1.24750996      -1.43970299      -0.00000000       2185.90503      -1.57239282    
  -1.29255998      -1.39939702      -0.00000000       2185.90503      -1.57239282    
   0.00000000       0.00000000       0.00000000       2185.90503      -1.57239282    
  -1.20120299      -1.47855902      -0.00000000       2185.90503      -1.57239282    
  -1.05521798      -1.58604598      -0.00000000       1737.27478      -1.57280290    
  -1.10500801      -1.55176699      -0.00000000       1737.27478      -1.57280290    
   0.00000000       0.00000000       0.00000000       1737.27478      -1.57280290    
  -1.00436401      -1.61872697      -0.00000000       1737.27478      -1.57280290    
   0.00000000       0.00000000       0.00000000       1965.91846      -1.57256353    
  -1.10500801      -1.55176699      -0.00000000       1965.91846      -1.57256353    
  -1.15368605      -1.51592600      -0.00000000       1965.91846      -1.57256353    
  -1.20120299      -1.47855902      -0.00000000       1965.91846      -1.57256353    
 -0.952499986      -1.64977801      -0.00000000       1513.72424      -1.57317102    
  -1.00436401      -1.61872697      -0.00000000       1513.72424      -1.57317102    
   0.00000000       0.00000000       0.00000000       1513.72424      -1.57317102    
 -0.899676025      -1.67916906      -0.00000000       1513.72424      -1.57317102    
 -0.735987008      -1.75708497      -0.00000000       1096.35498      -1.57457972    
 -0.791365981      -1.73284900      -0.00000000       1096.35498      -1.57457972    
   0.00000000       0.00000000       0.00000000       1096.35498      -1.57457972    
 -0.679867983      -1.77955198      -0.00000000       1096.35498      -1.57457972    
   0.00000000       0.00000000       0.00000000       1299.90454      -1.57373273    
 -0.791365981      -1.73284900      -0.00000000       1299.90454      -1.57373273    
 -0.845947027      -1.70686805      -0.00000000       1299.90454      -1.57373273    
 -0.899676025      -1.67916906      -0.00000000       1299.90454      -1.57373273    
 -0.623063982      -1.80022705      -0.00000000       903.373718      -1.57586026    
 -0.679867983      -1.77955198      -0.00000000       903.373718      -1.57586026    
   0.00000000       0.00000000       0.00000000       903.373718      -1.57586026    
 -0.565632999      -1.81908906      -0.00000000       903.373718      -1.57586026    
 -0.390157014      -1.86461902      -0.00000000       540.773193      -1.58121669    
 -0.449120998      -1.85130095      -0.00000000       540.773193      -1.58121669    
   0.00000000       0.00000000       0.00000000       540.773193      -1.58121669    
 -0.330799997      -1.87605906      -0.00000000       540.773193      -1.58121669    
   0.00000000       0.00000000       0.00000000       718.936768      -1.57785833    
 -0.449120998      -1.85130095      -0.00000000       718.936768      -1.57785833    
 -0.507632971      -1.83611906      -0.00000000       718.936768      -1.57785833    
 -0.565632999      -1.81908906      -0.00000000       718.936768      -1.57785833    
 -0.271109998      -1.88560998      -0.00000000       366.096008      -1.58780980    
 -0.330799997      -1.87605906      -0.00000000       366.096008      -1.58780980    
   0.00000000       0.00000000       0.00000000       366.096008      -1.58780980    
 -0.211146995      -1.89326203      -0.00000000       366.096008      -1.58780980    
  -3.02249994E-02  -1.90476000      -0.00000000       24.4199104      -1.88187289    
  -9.06440020E-02  -1.90284204      -0.00000000       24.4199104      -1.88187289    
   0.00000000       0.00000000       0.00000000       24.4199104      -1.88187289    
   3.02249994E-02  -1.90476000      -0.00000000       24.4199104      -1.88187289    
   0.00000000       0.00000000       0.00000000       194.089890      -1.60607600    
  -9.06440020E-02  -1.90284204      -0.00000000       194.089890      -1.60607600    
 -0.150970995      -1.89900804      -0.00000000       194.089890      -1.60607600    
 -0.211146995      -1.89326203      -0.00000000       194.089890      -1.60607600    
   9.06440020E-02  -1.90284204      -0.00000000       147.646835       1.62571251    
   3.02249994E-02  -1.90476000      -0.00000000       147.646835       1.62571251    
   0.00000000       0.00000000       0.00000000       147.646835       1.62571251    
  0.150970995      -1.89900804      -0.00000000       147.646835       1.62571251    
  0.330799997      -1.87605906      -0.00000000       492.323059       1.58974314    
  0.271109998      -1.88560998      -0.00000000       492.323059       1.58974314    
   0.00000000       0.00000000       0.00000000       492.323059       1.58974314    
  0.390157014      -1.86461902      -0.00000000       492.323059       1.58974314    
   0.00000000       0.00000000       0.00000000       318.995819       1.59815097    
  0.271109998      -1.88560998      -0.00000000       318.995819       1.59815097    
  0.211146995      -1.89326203      -0.00000000       318.995819       1.59815097    
  0.150970995      -1.89900804      -0.00000000       318.995819       1.59815097    
  0.449120998      -1.85130095      -0.00000000       668.603943       1.58560276    
  0.390157014      -1.86461902      -0.00000000       668.603943       1.58560276    
   0.00000000       0.00000000       0.00000000       668.603943       1.58560276    
  0.507632971      -1.83611906      -0.00000000       668.603943       1.58560276    
  0.679867983      -1.77955198      -0.00000000       1036.96167       1.58129489    
  0.623063982      -1.80022705      -0.00000000       1036.96167       1.58129489    
   0.00000000       0.00000000       0.00000000       1036.96167       1.58129489    
  0.735987008      -1.75708497      -0.00000000       1036.96167       1.58129489    
   0.00000000       0.00000000       0.00000000       849.066895       1.58307648    
  0.623063982      -1.80022705      -0.00000000       849.066895       1.58307648    
  0.565632999      -1.81908906      -0.00000000       849.066895       1.58307648    
  0.507632971      -1.83611906      -0.00000000       849.066895       1.58307648    
  0.791365981      -1.73284900      -0.00000000       1233.22791       1.57993078    
  0.735987008      -1.75708497      -0.00000000       1233.22791       1.57993078    
   0.00000000       0.00000000       0.00000000       1233.22791       1.57993078    
  0.845947027      -1.70686805      -0.00000000       1233.22791       1.57993078    
   1.00436401      -1.61872697      -0.00000000       1654.36035       1.57787073    
  0.952499986      -1.64977801      -0.00000000       1654.36035       1.57787073    
   0.00000000       0.00000000       0.00000000       1654.36035       1.57787073    
   1.05521798      -1.58604598      -0.00000000       1654.36035       1.57787073    
   0.00000000       0.00000000       0.00000000       1439.04395       1.57881594    
  0.952499986      -1.64977801      -0.00000000       1439.04395       1.57881594    
  0.899676025      -1.67916906      -0.00000000       1439.04395       1.57881594    
  0.845947027      -1.70686805      -0.00000000       1439.04395       1.57881594    
   1.10500801      -1.55176699      -0.00000000       1878.12048       1.57705092    
   1.05521798      -1.58604598      -0.00000000       1878.12048       1.57705092    
   0.00000000       0.00000000       0.00000000       1878.12048       1.57705092    
   1.15368605      -1.51592600      -0.00000000       1878.12048       1.57705092    
   1.29255998      -1.39939702      -0.00000000       2316.14795       1.57581556    
   1.24750996      -1.43970299      -0.00000000       2316.14795       1.57581556    
   0.00000000       0.00000000       0.00000000       2316.14795       1.57581556    
   1.33631003      -1.35768199      -0.00000000       2316.14795       1.57581556    
   0.00000000       0.00000000       0.00000000       2102.97900       1.57635856    
   1.24750996      -1.43970299      -0.00000000       2102.97900       1.57635856    
   1.20120299      -1.47855902      -0.00000000       2102.97900       1.57635856    