 VARIABLES="X" "Y" "Z" "abs(p) (Pa)" "angle(p) (rad)"
ZONE N=    802,E =     800, F=FEPOINT, ET=QUADRILATERAL
   1.90499997       0.00000000      -0.00000000       2.27902794       1.90291739    
   1.90404105      -6.04420006E-02  -0.00000000       2.27902794       1.90291739    
   0.00000000       0.00000000       0.00000000       2.27902794       1.90291739    
   1.90404105       6.04420006E-02  -0.00000000       2.27902794       1.90291739    
   1.88967395      0.241159007      -0.00000000       2.29328060       1.90063226    
   1.89637399      0.181081995      -0.00000000       2.29328060       1.90063226    
   0.00000000       0.00000000       0.00000000       2.29328060       1.90063226    
   1.88107097      0.300992996      -0.00000000       2.29328060       1.90063226    
   0.00000000       0.00000000       0.00000000       2.28287053       1.90230119    
   1.89637399      0.181081995      -0.00000000       2.28287053       1.90230119    
   1.90116501      0.120823003      -0.00000000       2.28287053       1.90230119    
   1.90404105       6.04420006E-02  -0.00000000       2.28287053       1.90230119    
   1.87057400      0.360523999      -0.00000000       2.31256032       1.89758337    
   1.88107097      0.300992996      -0.00000000       2.31256032       1.89758337    
   0.00000000       0.00000000       0.00000000       2.31256032       1.89758337    
   1.85819399      0.419692010      -0.00000000       2.31256032       1.89758337    
   1.80988598      0.594424009      -0.00000000       2.39378905       1.88535559    
   1.82783401      0.536701024      -0.00000000       2.39378905       1.88535559    
   0.00000000       0.00000000       0.00000000       2.39378905       1.88535559    
   1.79011405      0.651548028      -0.00000000       2.39378905       1.88535559    
   0.00000000       0.00000000       0.00000000       2.34451580       1.89266014    
   1.82783401      0.536701024      -0.00000000       2.34451580       1.89266014    
   1.84394205      0.478437006      -0.00000000       2.34451580       1.89266014    
   1.85819399      0.419692010      -0.00000000       2.34451580       1.89266014    
   1.76854098      0.708016992      -0.00000000       2.46110320       1.87586343    
   1.79011405      0.651548028      -0.00000000       2.46110320       1.87586343    
   0.00000000       0.00000000       0.00000000       2.46110320       1.87586343    
   1.74518704      0.763773024      -0.00000000       2.46110320       1.87586343    
   1.66468298      0.926204979      -0.00000000       2.65746427       1.85092402    
   1.69323206      0.872922003      -0.00000000       2.65746427       1.85092402    
   0.00000000       0.00000000       0.00000000       2.65746427       1.85092402    
   1.63445795      0.978555024      -0.00000000       2.65746427       1.85092402    
   0.00000000       0.00000000       0.00000000       2.54915547       1.86420667    
   1.69323206      0.872922003      -0.00000000       2.54915547       1.86420667    
   1.72007501      0.818759024      -0.00000000       2.54915547       1.86420667    
   1.74518704      0.763773024      -0.00000000       2.54915547       1.86420667    
   1.60258806       1.02992105      -0.00000000       2.78207684       1.83688176    
   1.63445795      0.978555024      -0.00000000       2.78207684       1.83688176    
   0.00000000       0.00000000       0.00000000       2.78207684       1.83688176    
   1.56910396       1.08024895      -0.00000000       2.78207684       1.83688176    
   1.45931494       1.22450995      -0.00000000       3.02696443       1.81230569    
   1.49743104       1.17759299      -0.00000000       3.02696443       1.81230569    
   0.00000000       0.00000000       0.00000000       3.02696443       1.81230569    
   1.41972899       1.27019501      -0.00000000       3.02696443       1.81230569    
   0.00000000       0.00000000       0.00000000       2.91091490       1.82352483    
   1.49743104       1.17759299      -0.00000000       2.91091490       1.82352483    
   1.53403997       1.12949002      -0.00000000       2.91091490       1.82352483    
   1.56910396       1.08024895      -0.00000000       2.91091490       1.82352483    
   1.37871301       1.31459999      -0.00000000       3.08045769       1.80730557    
   1.41972899       1.27019501      -0.00000000       3.08045769       1.80730557    
   0.00000000       0.00000000       0.00000000       3.08045769       1.80730557    
   1.33631003       1.35768199      -0.00000000       3.08045769       1.80730557    
   1.20120299       1.47855902      -0.00000000       2.88286805       1.82611358    
   1.24750996       1.43970299      -0.00000000       2.88286805       1.82611358    
   0.00000000       0.00000000       0.00000000       2.88286805       1.82611358    
   1.15368605       1.51592600      -0.00000000       2.88286805       1.82611358    
   0.00000000       0.00000000       0.00000000       3.01305437       1.81345916    
   1.24750996       1.43970299      -0.00000000       3.01305437       1.81345916    
   1.29255998       1.39939702      -0.00000000       3.01305437       1.81345916    
   1.33631003       1.35768199      -0.00000000       3.01305437       1.81345916    
   1.10500801       1.55176699      -0.00000000       2.74400449       1.84079778    
   1.15368605       1.51592600      -0.00000000       2.74400449       1.84079778    
   0.00000000       0.00000000       0.00000000       2.74400449       1.84079778    
   1.05521798       1.58604598      -0.00000000       2.74400449       1.84079778    
  0.899676025       1.67916906      -0.00000000       2.50692177       1.86948514    
  0.952499986       1.64977801      -0.00000000       2.50692177       1.86948514    
   0.00000000       0.00000000       0.00000000       2.50692177       1.86948514    
  0.845947027       1.70686805      -0.00000000       2.50692177       1.86948514    
   0.00000000       0.00000000       0.00000000       2.61504030       1.85576391    
  0.952499986       1.64977801      -0.00000000       2.61504030       1.85576391    
   1.00436401       1.61872697      -0.00000000       2.61504030       1.85576391    
   1.05521798       1.58604598      -0.00000000       2.61504030       1.85576391    
  0.791365981       1.73284900      -0.00000000       2.42007113       1.88140631    
  0.845947027       1.70686805      -0.00000000       2.42007113       1.88140631    
   0.00000000       0.00000000       0.00000000       2.42007113       1.88140631    
  0.735987008       1.75708497      -0.00000000       2.42007113       1.88140631    
  0.565632999       1.81908906      -0.00000000       2.30728340       1.89826727    
  0.623063982       1.80022705      -0.00000000       2.30728340       1.89826727    
   0.00000000       0.00000000       0.00000000       2.30728340       1.89826727    
  0.507632971       1.83611906      -0.00000000       2.30728340       1.89826727    
   0.00000000       0.00000000       0.00000000       2.35426378       1.89103436    
  0.623063982       1.80022705      -0.00000000       2.35426378       1.89103436    
  0.679867983       1.77955198      -0.00000000       2.35426378       1.89103436    
  0.735987008       1.75708497      -0.00000000       2.35426378       1.89103436    
  0.449120998       1.85130095      -0.00000000       2.27565432       1.90332401    
  0.507632971       1.83611906      -0.00000000       2.27565432       1.90332401    
   0.00000000       0.00000000       0.00000000       2.27565432       1.90332401    
  0.390157014       1.86461902      -0.00000000       2.27565432       1.90332401    
  0.211146995       1.89326203      -0.00000000       2.24389362       1.90858173    
  0.271109998       1.88560998      -0.00000000       2.24389362       1.90858173    
   0.00000000       0.00000000       0.00000000       2.24389362       1.90858173    
  0.150970995       1.89900804      -0.00000000       2.24389362       1.90858173    
   0.00000000       0.00000000       0.00000000       2.25546002       1.90664351    
  0.271109998       1.88560998      -0.00000000       2.25546002       1.90664351    
  0.330799997       1.87605906      -0.00000000       2.25546002       1.90664351    
  0.390157014       1.86461902      -0.00000000       2.25546002       1.90664351    
   9.06440020E-02   1.90284204      -0.00000000       2.23918462       1.90937722    
  0.150970995       1.89900804      -0.00000000       2.23918462       1.90937722    
   0.00000000       0.00000000       0.00000000       2.23918462       1.90937722    
   3.02249994E-02   1.90476000      -0.00000000       2.23918462       1.90937722    
 -0.150970995       1.89900804      -0.00000000       2.24483395       1.90841353    
  -9.06440020E-02   1.90284204      -0.00000000       2.24483395       1.90841353    
   0.00000000       0.00000000       0.00000000       2.24483395       1.90841353    
 -0.211146995       1.89326203      -0.00000000       2.24483395       1.90841353    
   0.00000000       0.00000000       0.00000000       2.23926020       1.90936136    
  -9.06440020E-02   1.90284204      -0.00000000       2.23926020       1.90936136    
  -3.02249994E-02   1.90476000      -0.00000000       2.23926020       1.90936136    
   3.02249994E-02   1.90476000      -0.00000000       2.23926020       1.90936136    
 -0.271109998       1.88560998      -0.00000000       2.25796103       1.90621829    
 -0.211146995       1.89326203      -0.00000000       2.25796103       1.90621829    
   0.00000000       0.00000000       0.00000000       2.25796103       1.90621829    
 -0.330799997       1.87605906      -0.00000000       2.25796103       1.90621829    
 -0.507632971       1.83611906      -0.00000000       2.31596828       1.89691317    
 -0.449120998       1.85130095      -0.00000000       2.31596828       1.89691317    
   0.00000000       0.00000000       0.00000000       2.31596828       1.89691317    
 -0.565632999       1.81908906      -0.00000000       2.31596828       1.89691317    
   0.00000000       0.00000000       0.00000000       2.28073764       1.90249753    
 -0.449120998       1.85130095      -0.00000000       2.28073764       1.90249753    
 -0.390157014       1.86461902      -0.00000000       2.28073764       1.90249753    
 -0.330799997       1.87605906      -0.00000000       2.28073764       1.90249753    
 -0.623063982       1.80022705      -0.00000000       2.36824465       1.88896883    
 -0.565632999       1.81908906      -0.00000000       2.36824465       1.88896883    
   0.00000000       0.00000000       0.00000000       2.36824465       1.88896883    
 -0.679867983       1.77955198      -0.00000000       2.36824465       1.88896883    
 -0.845947027       1.70686805      -0.00000000       2.52904058       1.86665845    
 -0.791365981       1.73284900      -0.00000000       2.52904058       1.86665845    
   0.00000000       0.00000000       0.00000000       2.52904058       1.86665845    
 -0.899676025       1.67916906      -0.00000000       2.52904058       1.86665845    
   0.00000000       0.00000000       0.00000000       2.43845558       1.87886024    
 -0.791365981       1.73284900      -0.00000000       2.43845558       1.87886024    
 -0.735987008       1.75708497      -0.00000000       2.43845558       1.87886024    
 -0.679867983       1.77955198      -0.00000000       2.43845558       1.87886024    
 -0.952499986       1.64977801      -0.00000000       2.63998866       1.85286081    
 -0.899676025       1.67916906      -0.00000000       2.63998866       1.85286081    
   0.00000000       0.00000000       0.00000000       2.63998866       1.85286081    
  -1.00436401       1.61872697      -0.00000000       2.63998866       1.85286081    
  -1.15368605       1.51592600      -0.00000000       2.89690018       1.82479405    
  -1.10500801       1.55176699      -0.00000000       2.89690018       1.82479405    
   0.00000000       0.00000000       0.00000000       2.89690018       1.82479405    
  -1.20120299       1.47855902      -0.00000000       2.89690018       1.82479405    
   0.00000000       0.00000000       0.00000000       2.76664782       1.83842516    
  -1.10500801       1.55176699      -0.00000000       2.76664782       1.83842516    
  -1.05521798       1.58604598      -0.00000000       2.76664782       1.83842516    
  -1.00436401       1.61872697      -0.00000000       2.76664782       1.83842516    
  -1.24750996       1.43970299      -0.00000000       3.01399875       1.81338370    
  -1.20120299       1.47855902      -0.00000000       3.01399875       1.81338370    
   0.00000000       0.00000000       0.00000000       3.01399875       1.81338370    
  -1.29255998       1.39939702      -0.00000000       3.01399875       1.81338370    
  -1.41972899       1.27019501      -0.00000000       3.00146532       1.81442535    
  -1.37871301       1.31459999      -0.00000000       3.00146532       1.81442535    
   0.00000000       0.00000000       0.00000000       3.00146532       1.81442535    
  -1.45931494       1.22450995      -0.00000000       3.00146532       1.81442535    
   0.00000000       0.00000000       0.00000000       3.06816769       1.80829072    
  -1.37871301       1.31459999      -0.00000000       3.06816769       1.80829072    
  -1.33631003       1.35768199      -0.00000000       3.06816769       1.80829072    
  -1.29255998       1.39939702      -0.00000000       3.06816769       1.80829072    
  -1.49743104       1.17759299      -0.00000000       2.87227702       1.82707071    
  -1.45931494       1.22450995      -0.00000000       2.87227702       1.82707071    
   0.00000000       0.00000000       0.00000000       2.87227702       1.82707071    
  -1.53403997       1.12949002      -0.00000000       2.87227702       1.82707071    
  -1.63445795      0.978555024      -0.00000000       2.60676622       1.85665381    
  -1.60258806       1.02992105      -0.00000000       2.60676622       1.85665381    
   0.00000000       0.00000000       0.00000000       2.60676622       1.85665381    
  -1.66468298      0.926204979      -0.00000000       2.60676622       1.85665381    
   0.00000000       0.00000000       0.00000000       2.73450422       1.84173739    
  -1.60258806       1.02992105      -0.00000000       2.73450422       1.84173739    
  -1.56910396       1.08024895      -0.00000000       2.73450422       1.84173739    
  -1.53403997       1.12949002      -0.00000000       2.73450422       1.84173739    
  -1.69323206      0.872922003      -0.00000000       2.49958706       1.87033677    
  -1.66468298      0.926204979      -0.00000000       2.49958706       1.87033677    
   0.00000000       0.00000000       0.00000000       2.49958706       1.87033677    
  -1.72007501      0.818759024      -0.00000000       2.49958706       1.87033677    
  -1.79011405      0.651548028      -0.00000000       2.34818220       1.89182067    
  -1.76854098      0.708016992      -0.00000000       2.34818220       1.89182067    
   0.00000000       0.00000000       0.00000000       2.34818220       1.89182067    
  -1.80988598      0.594424009      -0.00000000       2.34818220       1.89182067    
   0.00000000       0.00000000       0.00000000       2.41342783       1.88222659    
  -1.76854098      0.708016992      -0.00000000       2.41342783       1.88222659    
  -1.74518704      0.763773024      -0.00000000       2.41342783       1.88222659    
  -1.72007501      0.818759024      -0.00000000       2.41342783       1.88222659    
  -1.82783401      0.536701024      -0.00000000       2.30170202       1.89901209    
  -1.80988598      0.594424009      -0.00000000       2.30170202       1.89901209    
   0.00000000       0.00000000       0.00000000       2.30170202       1.89901209    
  -1.84394205      0.478437006      -0.00000000       2.30170202       1.89901209    
  -1.88107097      0.300992996      -0.00000000       2.25068903       1.90729892    
  -1.87057400      0.360523999      -0.00000000       2.25068903       1.90729892    
   0.00000000       0.00000000       0.00000000       2.25068903       1.90729892    
  -1.88967395      0.241159007      -0.00000000       2.25068903       1.90729892    
   0.00000000       0.00000000       0.00000000       2.27049041       1.90402961    
  -1.87057400      0.360523999      -0.00000000       2.27049041       1.90402961    
  -1.85819399      0.419692010      -0.00000000       2.27049041       1.90402961    
  -1.84394205      0.478437006      -0.00000000       2.27049041       1.90402961    
  -1.89637399      0.181081995      -0.00000000       2.23943400       1.90919662    
  -1.88967395      0.241159007      -0.00000000       2.23943400       1.90919662    
   0.00000000       0.00000000       0.00000000       2.23943400       1.90919662    
  -1.90116501      0.120823003      -0.00000000       2.23943400       1.90919662    
  -1.90404105      -6.04420006E-02  -0.00000000       2.23532391       1.90990567    
  -1.90499997       0.00000000      -0.00000000       2.23532391       1.90990567    
   0.00000000       0.00000000       0.00000000       2.23532391       1.90990567    
  -1.90116501     -0.120823003      -0.00000000       2.23532391       1.90990567    
   0.00000000       0.00000000       0.00000000       2.23500347       1.90995693    
  -1.90499997       0.00000000      -0.00000000       2.23500347       1.90995693    
  -1.90404105       6.04420006E-02  -0.00000000       2.23500347       1.90995693    
  -1.90116501      0.120823003      -0.00000000       2.23500347       1.90995693    
  -1.89637399     -0.181081995      -0.00000000       2.24118114       1.90891504    
  -1.90116501     -0.120823003      -0.00000000       2.24118114       1.90891504    
   0.00000000       0.00000000       0.00000000       2.24118114       1.90891504    
  -1.88967395     -0.241159007      -0.00000000       2.24118114       1.90891504    
  -1.85819399     -0.419692010      -0.00000000       2.27777576       1.90288627    
  -1.87057400     -0.360523999      -0.00000000       2.27777576       1.90288627    
   0.00000000       0.00000000       0.00000000       2.27777576       1.90288627    
  -1.84394205     -0.478437006      -0.00000000       2.27777576       1.90288627    
   0.00000000       0.00000000       0.00000000       2.25462794       1.90666926    
  -1.87057400     -0.360523999      -0.00000000       2.25462794       1.90666926    
  -1.88107097     -0.300992996      -0.00000000       2.25462794       1.90666926    
  -1.88967395     -0.241159007      -0.00000000       2.25462794       1.90666926    
  -1.82783401     -0.536701024      -0.00000000       2.31341600       1.89723325    
  -1.84394205     -0.478437006      -0.00000000       2.31341600       1.89723325    
   0.00000000       0.00000000       0.00000000       2.31341600       1.89723325    
  -1.80988598     -0.594424009      -0.00000000       2.31341600       1.89723325    
  -1.74518704     -0.763773024      -0.00000000       2.43679428       1.87903500    
  -1.76854098     -0.708016992      -0.00000000       2.43679428       1.87903500    
   0.00000000       0.00000000       0.00000000       2.43679428       1.87903500    
  -1.72007501     -0.818759024      -0.00000000       2.43679428       1.87903500    
   0.00000000       0.00000000       0.00000000       2.36612487       1.88921809    
  -1.76854098     -0.708016992      -0.00000000       2.36612487       1.88921809    
  -1.79011405     -0.651548028      -0.00000000       2.36612487       1.88921809    
  -1.80988598     -0.594424009      -0.00000000       2.36612487       1.88921809    
  -1.69323206     -0.872922003      -0.00000000       2.52787614       1.86676371    
  -1.72007501     -0.818759024      -0.00000000       2.52787614       1.86676371    
   0.00000000       0.00000000       0.00000000       2.52787614       1.86676371    
  -1.66468298     -0.926204979      -0.00000000       2.52787614       1.86676371    
  -1.56910396      -1.08024895      -0.00000000       2.76663613       1.83840561    
  -1.60258806      -1.02992105      -0.00000000       2.76663613       1.83840561    
   0.00000000       0.00000000       0.00000000       2.76663613       1.83840561    
  -1.53403997      -1.12949002      -0.00000000       2.76663613       1.83840561    
   0.00000000       0.00000000       0.00000000       2.63939142       1.85289919    
  -1.60258806      -1.02992105      -0.00000000       2.63939142       1.85289919    
  -1.63445795     -0.978555024      -0.00000000       2.63939142       1.85289919    
  -1.66468298     -0.926204979      -0.00000000       2.63939142       1.85289919    
  -1.49743104      -1.17759299      -0.00000000       2.89754057       1.82472050    
  -1.53403997      -1.12949002      -0.00000000       2.89754057       1.82472050    
   0.00000000       0.00000000       0.00000000       2.89754057       1.82472050    
  -1.45931494      -1.22450995      -0.00000000       2.89754057       1.82472050    
  -1.33631003      -1.35768199      -0.00000000       3.06956983       1.80817807    
  -1.37871301      -1.31459999      -0.00000000       3.06956983       1.80817807    
   0.00000000       0.00000000       0.00000000       3.06956983       1.80817807    
  -1.29255998      -1.39939702      -0.00000000       3.06956983       1.80817807    
   0.00000000       0.00000000       0.00000000       3.01520705       1.81327367    
  -1.37871301      -1.31459999      -0.00000000       3.01520705       1.81327367    
  -1.41972899      -1.27019501      -0.00000000       3.01520705       1.81327367    
  -1.45931494      -1.22450995      -0.00000000       3.01520705       1.81327367    
  -1.24750996      -1.43970299      -0.00000000       3.00288272       1.81431329    
  -1.29255998      -1.39939702      -0.00000000       3.00288272       1.81431329    
   0.00000000       0.00000000       0.00000000       3.00288272       1.81431329    
  -1.20120299      -1.47855902      -0.00000000       3.00288272       1.81431329    
  -1.05521798      -1.58604598      -0.00000000       2.73639488       1.84155774    
  -1.10500801      -1.55176699      -0.00000000       2.73639488       1.84155774    
   0.00000000       0.00000000       0.00000000       2.73639488       1.84155774    
  -1.00436401      -1.61872697      -0.00000000       2.73639488       1.84155774    
   0.00000000       0.00000000       0.00000000       2.87392473       1.82693040    
  -1.10500801      -1.55176699      -0.00000000       2.87392473       1.82693040    
  -1.15368605      -1.51592600      -0.00000000       2.87392473       1.82693040    
  -1.20120299      -1.47855902      -0.00000000       2.87392473       1.82693040    
 -0.952499986      -1.64977801      -0.00000000       2.60887265       1.85643411    
  -1.00436401      -1.61872697      -0.00000000       2.60887265       1.85643411    
   0.00000000       0.00000000       0.00000000       2.60887265       1.85643411    
 -0.899676025      -1.67916906      -0.00000000       2.60887265       1.85643411    
 -0.735987008      -1.75708497      -0.00000000       2.41585898       1.88192952    
 -0.791365981      -1.73284900      -0.00000000       2.41585898       1.88192952    
   0.00000000       0.00000000       0.00000000       2.41585898       1.88192952    
 -0.679867983      -1.77955198      -0.00000000       2.41585898       1.88192952    
   0.00000000       0.00000000       0.00000000       2.50185990       1.87007725    
 -0.791365981      -1.73284900      -0.00000000       2.50185990       1.87007725    
 -0.845947027      -1.70686805      -0.00000000       2.50185990       1.87007725    
 -0.899676025      -1.67916906      -0.00000000       2.50185990       1.87007725    
 -0.623063982      -1.80022705      -0.00000000       2.35077906       1.89148748    
 -0.679867983      -1.77955198      -0.00000000       2.35077906       1.89148748    
   0.00000000       0.00000000       0.00000000       2.35077906       1.89148748    
 -0.565632999      -1.81908906      -0.00000000       2.35077906       1.89148748    
 -0.390157014      -1.86461902      -0.00000000       2.27335477       1.90363741    
 -0.449120998      -1.85130095      -0.00000000       2.27335477       1.90363741    
   0.00000000       0.00000000       0.00000000       2.27335477       1.90363741    
 -0.330799997      -1.87605906      -0.00000000       2.27335477       1.90363741    
   0.00000000       0.00000000       0.00000000       2.30444741       1.89864826    
 -0.449120998      -1.85130095      -0.00000000       2.30444741       1.89864826    
 -0.507632971      -1.83611906      -0.00000000       2.30444741       1.89864826    
 -0.565632999      -1.81908906      -0.00000000       2.30444741       1.89864826    
 -0.271109998      -1.88560998      -0.00000000       2.25364661       1.90689206    
 -0.330799997      -1.87605906      -0.00000000       2.25364661       1.90689206    
   0.00000000       0.00000000       0.00000000       2.25364661       1.90689206    
 -0.211146995      -1.89326203      -0.00000000       2.25364661       1.90689206    
  -3.02249994E-02  -1.90476000      -0.00000000       2.23800230       1.90954685    
  -9.06440020E-02  -1.90284204      -0.00000000       2.23800230       1.90954685    
   0.00000000       0.00000000       0.00000000       2.23800230       1.90954685    
   3.02249994E-02  -1.90476000      -0.00000000       2.23800230       1.90954685    
   0.00000000       0.00000000       0.00000000       2.24243832       1.90878439    
  -9.06440020E-02  -1.90284204      -0.00000000       2.24243832       1.90878439    
 -0.150970995      -1.89900804      -0.00000000       2.24243832       1.90878439    
 -0.211146995      -1.89326203      -0.00000000       2.24243832       1.90878439    
   9.06440020E-02  -1.90284204      -0.00000000       2.23831415       1.90949929    
   3.02249994E-02  -1.90476000      -0.00000000       2.23831415       1.90949929    
   0.00000000       0.00000000       0.00000000       2.23831415       1.90949929    
  0.150970995      -1.89900804      -0.00000000       2.23831415       1.90949929    
  0.330799997      -1.87605906      -0.00000000       2.25772071       1.90626073    
  0.271109998      -1.88560998      -0.00000000       2.25772071       1.90626073    
   0.00000000       0.00000000       0.00000000       2.25772071       1.90626073    
  0.390157014      -1.86461902      -0.00000000       2.25772071       1.90626073    
   0.00000000       0.00000000       0.00000000       2.24420214       1.90850997    
  0.271109998      -1.88560998      -0.00000000       2.24420214       1.90850997    
  0.211146995      -1.89326203      -0.00000000       2.24420214       1.90850997    
  0.150970995      -1.89900804      -0.00000000       2.24420214       1.90850997    
  0.449120998      -1.85130095      -0.00000000       2.28099847       1.90246463    
  0.390157014      -1.86461902      -0.00000000       2.28099847       1.90246463    
   0.00000000       0.00000000       0.00000000       2.28099847       1.90246463    
  0.507632971      -1.83611906      -0.00000000       2.28099847       1.90246463    
  0.679867983      -1.77955198      -0.00000000       2.36959672       1.88879073    
  0.623063982      -1.80022705      -0.00000000       2.36959672       1.88879073    
   0.00000000       0.00000000       0.00000000       2.36959672       1.88879073    
  0.735987008      -1.75708497      -0.00000000       2.36959672       1.88879073    
   0.00000000       0.00000000       0.00000000       2.31677246       1.89680636    
  0.623063982      -1.80022705      -0.00000000       2.31677246       1.89680636    
  0.565632999      -1.81908906      -0.00000000       2.31677246       1.89680636    
  0.507632971      -1.83611906      -0.00000000       2.31677246       1.89680636    
  0.791365981      -1.73284900      -0.00000000       2.44036937       1.87861717    
  0.735987008      -1.75708497      -0.00000000       2.44036937       1.87861717    
   0.00000000       0.00000000       0.00000000       2.44036937       1.87861717    
  0.845947027      -1.70686805      -0.00000000       2.44036937       1.87861717    
   1.00436401      -1.61872697      -0.00000000       2.64360619       1.85245788    
  0.952499986      -1.64977801      -0.00000000       2.64360619       1.85245788    
   0.00000000       0.00000000       0.00000000       2.64360619       1.85245788    
   1.05521798      -1.58604598      -0.00000000       2.64360619       1.85245788    
   0.00000000       0.00000000       0.00000000       2.53159142       1.86635268    
  0.952499986      -1.64977801      -0.00000000       2.53159142       1.86635268    
  0.899676025      -1.67916906      -0.00000000       2.53159142       1.86635268    
  0.845947027      -1.70686805      -0.00000000       2.53159142       1.86635268    
   1.10500801      -1.55176699      -0.00000000       2.77100730       1.83797884    
   1.05521798      -1.58604598      -0.00000000       2.77100730       1.83797884    
   0.00000000       0.00000000       0.00000000       2.77100730       1.83797884    
   1.15368605      -1.51592600      -0.00000000       2.77100730       1.83797884    
   1.29255998      -1.39939702      -0.00000000       3.02002001       1.81285179    
   1.24750996      -1.43970299      -0.00000000       3.02002001       1.81285179    
   0.00000000       0.00000000       0.00000000       3.02002001       1.81285179    
   1.33631003      -1.35768199      -0.00000000       3.02002001       1.81285179    
   0.00000000       0.00000000       0.00000000       2.90207553       1.82430291    
   1.24750996      -1.43970299      -0.00000000       2.90207553       1.82430291    
   1.20120299      -1.47855902      -0.00000000       2.90207553       1.82430291    