 VARIABLES="X" "Y" "Z" "abs(p) (Pa)" "angle(p) (rad)"
ZONE N=    802,E =     800, F=FEPOINT, ET=QUADRILATERAL
   1.90499997       0.00000000      -0.00000000       1573.94067       1.57356155    
   1.90404105      -6.04420006E-02  -0.00000000       1573.94067       1.57356155    
   0.00000000       0.00000000       0.00000000       1573.94067       1.57356155    
   1.90404105       6.04420006E-02  -0.00000000       1573.94067       1.57356155    
   1.88967395      0.241159007      -0.00000000       1571.01379       1.57355881    
   1.89637399      0.181081995      -0.00000000       1571.01379       1.57355881    
   0.00000000       0.00000000       0.00000000       1571.01379       1.57355881    
   1.88107097      0.300992996      -0.00000000       1571.01379       1.57355881    
   0.00000000       0.00000000       0.00000000       1573.01343       1.57356119    
   1.89637399      0.181081995      -0.00000000       1573.01343       1.57356119    
   1.90116501      0.120823003      -0.00000000       1573.01343       1.57356119    
   1.90404105       6.04420006E-02  -0.00000000       1573.01343       1.57356119    
   1.87057400      0.360523999      -0.00000000       1569.05603       1.57355201    
   1.88107097      0.300992996      -0.00000000       1569.05603       1.57355201    
   0.00000000       0.00000000       0.00000000       1569.05603       1.57355201    
   1.85819399      0.419692010      -0.00000000       1569.05603       1.57355201    
   1.80988598      0.594424009      -0.00000000       1568.08923       1.57351947    
   1.82783401      0.536701024      -0.00000000       1568.08923       1.57351947    
   0.00000000       0.00000000       0.00000000       1568.08923       1.57351947    
   1.79011405      0.651548028      -0.00000000       1568.08923       1.57351947    
   0.00000000       0.00000000       0.00000000       1567.56946       1.57354009    
   1.82783401      0.536701024      -0.00000000       1567.56946       1.57354009    
   1.84394205      0.478437006      -0.00000000       1567.56946       1.57354009    
   1.85819399      0.419692010      -0.00000000       1567.56946       1.57354009    
   1.76854098      0.708016992      -0.00000000       1572.71814       1.57348621    
   1.79011405      0.651548028      -0.00000000       1572.71814       1.57348621    
   0.00000000       0.00000000       0.00000000       1572.71814       1.57348621    
   1.74518704      0.763773024      -0.00000000       1572.71814       1.57348621    
   1.66468298      0.926204979      -0.00000000       1595.31934       1.57338166    
   1.69323206      0.872922003      -0.00000000       1595.31934       1.57338166    
   0.00000000       0.00000000       0.00000000       1595.31934       1.57338166    
   1.63445795      0.978555024      -0.00000000       1595.31934       1.57338166    
   0.00000000       0.00000000       0.00000000       1581.75403       1.57344031    
   1.69323206      0.872922003      -0.00000000       1581.75403       1.57344031    
   1.72007501      0.818759024      -0.00000000       1581.75403       1.57344031    
   1.74518704      0.763773024      -0.00000000       1581.75403       1.57344031    
   1.60258806       1.02992105      -0.00000000       1611.43896       1.57331455    
   1.63445795      0.978555024      -0.00000000       1611.43896       1.57331455    
   0.00000000       0.00000000       0.00000000       1611.43896       1.57331455    
   1.56910396       1.08024895      -0.00000000       1611.43896       1.57331455    
   1.45931494       1.22450995      -0.00000000       1635.54297       1.57318532    
   1.49743104       1.17759299      -0.00000000       1635.54297       1.57318532    
   0.00000000       0.00000000       0.00000000       1635.54297       1.57318532    
   1.41972899       1.27019501      -0.00000000       1635.54297       1.57318532    
   0.00000000       0.00000000       0.00000000       1627.74133       1.57324398    
   1.49743104       1.17759299      -0.00000000       1627.74133       1.57324398    
   1.53403997       1.12949002      -0.00000000       1627.74133       1.57324398    
   1.56910396       1.08024895      -0.00000000       1627.74133       1.57324398    
   1.37871301       1.31459999      -0.00000000       1605.52527       1.57319283    
   1.41972899       1.27019501      -0.00000000       1605.52527       1.57319283    
   0.00000000       0.00000000       0.00000000       1605.52527       1.57319283    
   1.33631003       1.35768199      -0.00000000       1605.52527       1.57319283    
   1.20120299       1.47855902      -0.00000000       1357.08362       1.57361853    
   1.24750996       1.43970299      -0.00000000       1357.08362       1.57361853    
   0.00000000       0.00000000       0.00000000       1357.08362       1.57361853    
   1.15368605       1.51592600      -0.00000000       1357.08362       1.57361853    
   0.00000000       0.00000000       0.00000000       1500.32959       1.57334912    
   1.24750996       1.43970299      -0.00000000       1500.32959       1.57334912    
   1.29255998       1.39939702      -0.00000000       1500.32959       1.57334912    
   1.33631003       1.35768199      -0.00000000       1500.32959       1.57334912    
   1.10500801       1.55176699      -0.00000000       1208.64124       1.57396352    
   1.15368605       1.51592600      -0.00000000       1208.64124       1.57396352    
   0.00000000       0.00000000       0.00000000       1208.64124       1.57396352    
   1.05521798       1.58604598      -0.00000000       1208.64124       1.57396352    
  0.899676025       1.67916906      -0.00000000       923.529602       1.57491446    
  0.952499986       1.64977801      -0.00000000       923.529602       1.57491446    
   0.00000000       0.00000000       0.00000000       923.529602       1.57491446    
  0.845947027       1.70686805      -0.00000000       923.529602       1.57491446    
   0.00000000       0.00000000       0.00000000       1063.36072       1.57438779    
  0.952499986       1.64977801      -0.00000000       1063.36072       1.57438779    
   1.00436401       1.61872697      -0.00000000       1063.36072       1.57438779    
   1.05521798       1.58604598      -0.00000000       1063.36072       1.57438779    
  0.791365981       1.73284900      -0.00000000       790.728821       1.57557571    
  0.845947027       1.70686805      -0.00000000       790.728821       1.57557571    
   0.00000000       0.00000000       0.00000000       790.728821       1.57557571    
  0.735987008       1.75708497      -0.00000000       790.728821       1.57557571    
  0.565632999       1.81908906      -0.00000000       543.305542       1.57763278    
  0.623063982       1.80022705      -0.00000000       543.305542       1.57763278    
   0.00000000       0.00000000       0.00000000       543.305542       1.57763278    
  0.507632971       1.83611906      -0.00000000       543.305542       1.57763278    
   0.00000000       0.00000000       0.00000000       664.333618       1.57643998    
  0.623063982       1.80022705      -0.00000000       664.333618       1.57643998    
  0.679867983       1.77955198      -0.00000000       664.333618       1.57643998    
  0.735987008       1.75708497      -0.00000000       664.333618       1.57643998    
  0.449120998       1.85130095      -0.00000000       426.070038       1.57942307    
  0.507632971       1.83611906      -0.00000000       426.070038       1.57942307    
   0.00000000       0.00000000       0.00000000       426.070038       1.57942307    
  0.390157014       1.86461902      -0.00000000       426.070038       1.57942307    
  0.211146995       1.89326203      -0.00000000       199.687088       1.58877468    
  0.271109998       1.88560998      -0.00000000       199.687088       1.58877468    
   0.00000000       0.00000000       0.00000000       199.687088       1.58877468    
  0.150970995       1.89900804      -0.00000000       199.687088       1.58877468    
   0.00000000       0.00000000       0.00000000       311.854523       1.58244848    
  0.271109998       1.88560998      -0.00000000       311.854523       1.58244848    
  0.330799997       1.87605906      -0.00000000       311.854523       1.58244848    
  0.390157014       1.86461902      -0.00000000       311.854523       1.58244848    
   9.06440020E-02   1.90284204      -0.00000000       88.1239929       1.61103451    
  0.150970995       1.89900804      -0.00000000       88.1239929       1.61103451    
   0.00000000       0.00000000       0.00000000       88.1239929       1.61103451    
   3.02249994E-02   1.90476000      -0.00000000       88.1239929       1.61103451    
 -0.150970995       1.89900804      -0.00000000       134.673508      -1.59644973    
  -9.06440020E-02   1.90284204      -0.00000000       134.673508      -1.59644973    
   0.00000000       0.00000000       0.00000000       134.673508      -1.59644973    
 -0.211146995       1.89326203      -0.00000000       134.673508      -1.59644973    
   0.00000000       0.00000000       0.00000000       23.6264000      -1.71947300    
  -9.06440020E-02   1.90284204      -0.00000000       23.6264000      -1.71947300    
  -3.02249994E-02   1.90476000      -0.00000000       23.6264000      -1.71947300    
   3.02249994E-02   1.90476000      -0.00000000       23.6264000      -1.71947300    
 -0.271109998       1.88560998      -0.00000000       246.902740      -1.58460772    
 -0.211146995       1.89326203      -0.00000000       246.902740      -1.58460772    
   0.00000000       0.00000000       0.00000000       246.902740      -1.58460772    
 -0.330799997       1.87605906      -0.00000000       246.902740      -1.58460772    
 -0.507632971       1.83611906      -0.00000000       479.245361      -1.57773769    
 -0.449120998       1.85130095      -0.00000000       479.245361      -1.57773769    
   0.00000000       0.00000000       0.00000000       479.245361      -1.57773769    
 -0.565632999       1.81908906      -0.00000000       479.245361      -1.57773769    
   0.00000000       0.00000000       0.00000000       361.638367      -1.58010697    
 -0.449120998       1.85130095      -0.00000000       361.638367      -1.58010697    
 -0.390157014       1.86461902      -0.00000000       361.638367      -1.58010697    
 -0.330799997       1.87605906      -0.00000000       361.638367      -1.58010697    
 -0.623063982       1.80022705      -0.00000000       600.840393      -1.57627082    
 -0.565632999       1.81908906      -0.00000000       600.840393      -1.57627082    
   0.00000000       0.00000000       0.00000000       600.840393      -1.57627082    
 -0.679867983       1.77955198      -0.00000000       600.840393      -1.57627082    
 -0.845947027       1.70686805      -0.00000000       860.605774      -1.57454848    
 -0.791365981       1.73284900      -0.00000000       860.605774      -1.57454848    
   0.00000000       0.00000000       0.00000000       860.605774      -1.57454848    
 -0.899676025       1.67916906      -0.00000000       860.605774      -1.57454848    
   0.00000000       0.00000000       0.00000000       727.934021      -1.57527006    
 -0.791365981       1.73284900      -0.00000000       727.934021      -1.57527006    
 -0.735987008       1.75708497      -0.00000000       727.934021      -1.57527006    
 -0.679867983       1.77955198      -0.00000000       727.934021      -1.57527006    
 -0.952499986       1.64977801      -0.00000000       999.146729      -1.57400644    
 -0.899676025       1.67916906      -0.00000000       999.146729      -1.57400644    
   0.00000000       0.00000000       0.00000000       999.146729      -1.57400644    
  -1.00436401       1.61872697      -0.00000000       999.146729      -1.57400644    
  -1.15368605       1.51592600      -0.00000000       1285.40442      -1.57327080    
  -1.10500801       1.55176699      -0.00000000       1285.40442      -1.57327080    
   0.00000000       0.00000000       0.00000000       1285.40442      -1.57327080    
  -1.20120299       1.47855902      -0.00000000       1285.40442      -1.57327080    
   0.00000000       0.00000000       0.00000000       1141.59009      -1.57359207    
  -1.10500801       1.55176699      -0.00000000       1141.59009      -1.57359207    
  -1.05521798       1.58604598      -0.00000000       1141.59009      -1.57359207    
  -1.00436401       1.61872697      -0.00000000       1141.59009      -1.57359207    
  -1.24750996       1.43970299      -0.00000000       1421.94946      -1.57302618    
  -1.20120299       1.47855902      -0.00000000       1421.94946      -1.57302618    
   0.00000000       0.00000000       0.00000000       1421.94946      -1.57302618    
  -1.29255998       1.39939702      -0.00000000       1421.94946      -1.57302618    
  -1.41972899       1.27019501      -0.00000000       1550.43799      -1.57278800    
  -1.37871301       1.31459999      -0.00000000       1550.43799      -1.57278800    
   0.00000000       0.00000000       0.00000000       1550.43799      -1.57278800    
  -1.45931494       1.22450995      -0.00000000       1550.43799      -1.57278800    
   0.00000000       0.00000000       0.00000000       1522.53357      -1.57286322    
  -1.37871301       1.31459999      -0.00000000       1522.53357      -1.57286322    
  -1.33631003       1.35768199      -0.00000000       1522.53357      -1.57286322    
  -1.29255998       1.39939702      -0.00000000       1522.53357      -1.57286322    
  -1.49743104       1.17759299      -0.00000000       1541.07312      -1.57275259    
  -1.45931494       1.22450995      -0.00000000       1541.07312      -1.57275259    
   0.00000000       0.00000000       0.00000000       1541.07312      -1.57275259    
  -1.53403997       1.12949002      -0.00000000       1541.07312      -1.57275259    
  -1.63445795      0.978555024      -0.00000000       1512.02234      -1.57270122    
  -1.60258806       1.02992105      -0.00000000       1512.02234      -1.57270122    
   0.00000000       0.00000000       0.00000000       1512.02234      -1.57270122    
  -1.66468298      0.926204979      -0.00000000       1512.02234      -1.57270122    
   0.00000000       0.00000000       0.00000000       1525.63867      -1.57272589    
  -1.60258806       1.02992105      -0.00000000       1525.63867      -1.57272589    
  -1.56910396       1.08024895      -0.00000000       1525.63867      -1.57272589    
  -1.53403997       1.12949002      -0.00000000       1525.63867      -1.57272589    
  -1.69323206      0.872922003      -0.00000000       1502.22095      -1.57267678    
  -1.66468298      0.926204979      -0.00000000       1502.22095      -1.57267678    
   0.00000000       0.00000000       0.00000000       1502.22095      -1.57267678    
  -1.72007501      0.818759024      -0.00000000       1502.22095      -1.57267678    
  -1.79011405      0.651548028      -0.00000000       1497.78943      -1.57262528    
  -1.76854098      0.708016992      -0.00000000       1497.78943      -1.57262528    
   0.00000000       0.00000000       0.00000000       1497.78943      -1.57262528    
  -1.80988598      0.594424009      -0.00000000       1497.78943      -1.57262528    
   0.00000000       0.00000000       0.00000000       1497.55774      -1.57265115    
  -1.76854098      0.708016992      -0.00000000       1497.55774      -1.57265115    
  -1.74518704      0.763773024      -0.00000000       1497.55774      -1.57265115    
  -1.72007501      0.818759024      -0.00000000       1497.55774      -1.57265115    
  -1.82783401      0.536701024      -0.00000000       1501.20654      -1.57260048    
  -1.80988598      0.594424009      -0.00000000       1501.20654      -1.57260048    
   0.00000000       0.00000000       0.00000000       1501.20654      -1.57260048    
  -1.84394205      0.478437006      -0.00000000       1501.20654      -1.57260048    
  -1.88107097      0.300992996      -0.00000000       1510.99854      -1.57256186    
  -1.87057400      0.360523999      -0.00000000       1510.99854      -1.57256186    
   0.00000000       0.00000000       0.00000000       1510.99854      -1.57256186    
  -1.88967395      0.241159007      -0.00000000       1510.99854      -1.57256186    
   0.00000000       0.00000000       0.00000000       1505.94458      -1.57257915    
  -1.87057400      0.360523999      -0.00000000       1505.94458      -1.57257915    
  -1.85819399      0.419692010      -0.00000000       1505.94458      -1.57257915    
  -1.84394205      0.478437006      -0.00000000       1505.94458      -1.57257915    
  -1.89637399      0.181081995      -0.00000000       1515.26990      -1.57254934    
  -1.88967395      0.241159007      -0.00000000       1515.26990      -1.57254934    
   0.00000000       0.00000000       0.00000000       1515.26990      -1.57254934    
  -1.90116501      0.120823003      -0.00000000       1515.26990      -1.57254934    
  -1.90404105      -6.04420006E-02  -0.00000000       1517.91931      -1.57254279    
  -1.90499997       0.00000000      -0.00000000       1517.91931      -1.57254279    
   0.00000000       0.00000000       0.00000000       1517.91931      -1.57254279    
  -1.90116501     -0.120823003      -0.00000000       1517.91931      -1.57254279    
   0.00000000       0.00000000       0.00000000       1517.74390      -1.57254291    
  -1.90499997       0.00000000      -0.00000000       1517.74390      -1.57254291    
  -1.90404105       6.04420006E-02  -0.00000000       1517.74390      -1.57254291    
  -1.90116501      0.120823003      -0.00000000       1517.74390      -1.57254291    
  -1.89637399     -0.181081995      -0.00000000       1516.15503      -1.57254875    
  -1.90116501     -0.120823003      -0.00000000       1516.15503      -1.57254875    
   0.00000000       0.00000000       0.00000000       1516.15503      -1.57254875    
  -1.88967395     -0.241159007      -0.00000000       1516.15503      -1.57254875    
  -1.85819399     -0.419692010      -0.00000000       1509.46313      -1.57257593    
  -1.87057400     -0.360523999      -0.00000000       1509.46313      -1.57257593    
   0.00000000       0.00000000       0.00000000       1509.46313      -1.57257593    
  -1.84394205     -0.478437006      -0.00000000       1509.46313      -1.57257593    
   0.00000000       0.00000000       0.00000000       1512.91431      -1.57256007    
  -1.87057400     -0.360523999      -0.00000000       1512.91431      -1.57256007    
  -1.88107097     -0.300992996      -0.00000000       1512.91431      -1.57256007    
  -1.88967395     -0.241159007      -0.00000000       1512.91431      -1.57256007    
  -1.82783401     -0.536701024      -0.00000000       1506.39392      -1.57259595    
  -1.84394205     -0.478437006      -0.00000000       1506.39392      -1.57259595    
   0.00000000       0.00000000       0.00000000       1506.39392      -1.57259595    
  -1.80988598     -0.594424009      -0.00000000       1506.39392      -1.57259595    
  -1.74518704     -0.763773024      -0.00000000       1507.95386      -1.57264102    
  -1.76854098     -0.708016992      -0.00000000       1507.95386      -1.57264102    
   0.00000000       0.00000000       0.00000000       1507.95386      -1.57264102    
  -1.72007501     -0.818759024      -0.00000000       1507.95386      -1.57264102    
   0.00000000       0.00000000       0.00000000       1505.19128      -1.57261813    
  -1.76854098     -0.708016992      -0.00000000       1505.19128      -1.57261813    
  -1.79011405     -0.651548028      -0.00000000       1505.19128      -1.57261813    
  -1.80988598     -0.594424009      -0.00000000       1505.19128      -1.57261813    
  -1.69323206     -0.872922003      -0.00000000       1514.60498      -1.57266426    
  -1.72007501     -0.818759024      -0.00000000       1514.60498      -1.57266426    
   0.00000000       0.00000000       0.00000000       1514.60498      -1.57266426    
  -1.66468298     -0.926204979      -0.00000000       1514.60498      -1.57266426    
  -1.56910396      -1.08024895      -0.00000000       1538.24658      -1.57271290    
  -1.60258806      -1.02992105      -0.00000000       1538.24658      -1.57271290    
   0.00000000       0.00000000       0.00000000       1538.24658      -1.57271290    
  -1.53403997      -1.12949002      -0.00000000       1538.24658      -1.57271290    
   0.00000000       0.00000000       0.00000000       1525.29016      -1.57268763    
  -1.60258806      -1.02992105      -0.00000000       1525.29016      -1.57268763    
  -1.63445795     -0.978555024      -0.00000000       1525.29016      -1.57268763    
  -1.66468298     -0.926204979      -0.00000000       1525.29016      -1.57268763    
  -1.49743104      -1.17759299      -0.00000000       1551.19458      -1.57274175    
  -1.53403997      -1.12949002      -0.00000000       1551.19458      -1.57274175    
   0.00000000       0.00000000       0.00000000       1551.19458      -1.57274175    
  -1.45931494      -1.22450995      -0.00000000       1551.19458      -1.57274175    
  -1.33631003      -1.35768199      -0.00000000       1522.89819      -1.57286239    
  -1.37871301      -1.31459999      -0.00000000       1522.89819      -1.57286239    
   0.00000000       0.00000000       0.00000000       1522.89819      -1.57286239    
  -1.29255998      -1.39939702      -0.00000000       1522.89819      -1.57286239    
   0.00000000       0.00000000       0.00000000       1555.60986      -1.57278204    
  -1.37871301      -1.31459999      -0.00000000       1555.60986      -1.57278204    
  -1.41972899      -1.27019501      -0.00000000       1555.60986      -1.57278204    
  -1.45931494      -1.22450995      -0.00000000       1555.60986      -1.57278204    
  -1.24750996      -1.43970299      -0.00000000       1417.30127      -1.57303274    
  -1.29255998      -1.39939702      -0.00000000       1417.30127      -1.57303274    
   0.00000000       0.00000000       0.00000000       1417.30127      -1.57303274    
  -1.20120299      -1.47855902      -0.00000000       1417.30127      -1.57303274    
  -1.05521798      -1.58604598      -0.00000000       1127.92188      -1.57362282    
  -1.10500801      -1.55176699      -0.00000000       1127.92188      -1.57362282    
   0.00000000       0.00000000       0.00000000       1127.92188      -1.57362282    
  -1.00436401      -1.61872697      -0.00000000       1127.92188      -1.57362282    
   0.00000000       0.00000000       0.00000000       1275.13269      -1.57328856    
  -1.10500801      -1.55176699      -0.00000000       1275.13269      -1.57328856    
  -1.15368605      -1.51592600      -0.00000000       1275.13269      -1.57328856    
  -1.20120299      -1.47855902      -0.00000000       1275.13269      -1.57328856    
 -0.952499986      -1.64977801      -0.00000000       983.760132      -1.57405329    
  -1.00436401      -1.61872697      -0.00000000       983.760132      -1.57405329    
   0.00000000       0.00000000       0.00000000       983.760132      -1.57405329    
 -0.899676025      -1.67916906      -0.00000000       983.760132      -1.57405329    
 -0.735987008      -1.75708497      -0.00000000       712.920654      -1.57536054    
 -0.791365981      -1.73284900      -0.00000000       712.920654      -1.57536054    
   0.00000000       0.00000000       0.00000000       712.920654      -1.57536054    
 -0.679867983      -1.77955198      -0.00000000       712.920654      -1.57536054    
   0.00000000       0.00000000       0.00000000       844.900391      -1.57461452    
 -0.791365981      -1.73284900      -0.00000000       844.900391      -1.57461452    
 -0.845947027      -1.70686805      -0.00000000       844.900391      -1.57461452    
 -0.899676025      -1.67916906      -0.00000000       844.900391      -1.57461452    
 -0.623063982      -1.80022705      -0.00000000       587.190247      -1.57639539    
 -0.679867983      -1.77955198      -0.00000000       587.190247      -1.57639539    
   0.00000000       0.00000000       0.00000000       587.190247      -1.57639539    
 -0.565632999      -1.81908906      -0.00000000       587.190247      -1.57639539    
 -0.390157014      -1.86461902      -0.00000000       350.018646      -1.58041358    
 -0.449120998      -1.85130095      -0.00000000       350.018646      -1.58041358    
   0.00000000       0.00000000       0.00000000       350.018646      -1.58041358    
 -0.330799997      -1.87605906      -0.00000000       350.018646      -1.58041358    
   0.00000000       0.00000000       0.00000000       466.742798      -1.57792151    
 -0.449120998      -1.85130095      -0.00000000       466.742798      -1.57792151    
 -0.507632971      -1.83611906      -0.00000000       466.742798      -1.57792151    
 -0.565632999      -1.81908906      -0.00000000       466.742798      -1.57792151    
 -0.271109998      -1.88560998      -0.00000000       236.244492      -1.58522856    
 -0.330799997      -1.87605906      -0.00000000       236.244492      -1.58522856    
   0.00000000       0.00000000       0.00000000       236.244492      -1.58522856    
 -0.211146995      -1.89326203      -0.00000000       236.244492      -1.58522856    
  -3.02249994E-02  -1.90476000      -0.00000000       13.4225302      -1.83455384    
  -9.06440020E-02  -1.90284204      -0.00000000       13.4225302      -1.83455384    
   0.00000000       0.00000000       0.00000000       13.4225302      -1.83455384    
   3.02249994E-02  -1.90476000      -0.00000000       13.4225302      -1.83455384    
   0.00000000       0.00000000       0.00000000       124.412476      -1.59856403    
  -9.06440020E-02  -1.90284204      -0.00000000       124.412476      -1.59856403    
 -0.150970995      -1.89900804      -0.00000000       124.412476      -1.59856403    
 -0.211146995      -1.89326203      -0.00000000       124.412476      -1.59856403    
   9.06440020E-02  -1.90284204      -0.00000000       98.6325226       1.60674214    
   3.02249994E-02  -1.90476000      -0.00000000       98.6325226       1.60674214    
   0.00000000       0.00000000       0.00000000       98.6325226       1.60674214    
  0.150970995      -1.89900804      -0.00000000       98.6325226       1.60674214    
  0.330799997      -1.87605906      -0.00000000       322.799408       1.58205128    
  0.271109998      -1.88560998      -0.00000000       322.799408       1.58205128    
   0.00000000       0.00000000       0.00000000       322.799408       1.58205128    
  0.390157014      -1.86461902      -0.00000000       322.799408       1.58205128    
   0.00000000       0.00000000       0.00000000       210.131042       1.58787894    
  0.271109998      -1.88560998      -0.00000000       210.131042       1.58787894    
  0.211146995      -1.89326203      -0.00000000       210.131042       1.58787894    
  0.150970995      -1.89900804      -0.00000000       210.131042       1.58787894    
  0.449120998      -1.85130095      -0.00000000       438.105835       1.57918346    
  0.390157014      -1.86461902      -0.00000000       438.105835       1.57918346    
   0.00000000       0.00000000       0.00000000       438.105835       1.57918346    
  0.507632971      -1.83611906      -0.00000000       438.105835       1.57918346    
  0.679867983      -1.77955198      -0.00000000       678.668396       1.57631743    
  0.623063982      -1.80022705      -0.00000000       678.668396       1.57631743    
   0.00000000       0.00000000       0.00000000       678.668396       1.57631743    
  0.735987008      -1.75708497      -0.00000000       678.668396       1.57631743    
   0.00000000       0.00000000       0.00000000       556.349670       1.57746983    
  0.623063982      -1.80022705      -0.00000000       556.349670       1.57746983    
  0.565632999      -1.81908906      -0.00000000       556.349670       1.57746983    
  0.507632971      -1.83611906      -0.00000000       556.349670       1.57746983    
  0.791365981      -1.73284900      -0.00000000       806.599182       1.57547808    
  0.735987008      -1.75708497      -0.00000000       806.599182       1.57547808    
   0.00000000       0.00000000       0.00000000       806.599182       1.57547808    
  0.845947027      -1.70686805      -0.00000000       806.599182       1.57547808    
   1.00436401      -1.61872697      -0.00000000       1079.87524       1.57432938    
  0.952499986      -1.64977801      -0.00000000       1079.87524       1.57432938    
   0.00000000       0.00000000       0.00000000       1079.87524       1.57432938    
   1.05521798      -1.58604598      -0.00000000       1079.87524       1.57432938    
   0.00000000       0.00000000       0.00000000       940.242554       1.57483673    
  0.952499986      -1.64977801      -0.00000000       940.242554       1.57483673    
  0.899676025      -1.67916906      -0.00000000       940.242554       1.57483673    
  0.845947027      -1.70686805      -0.00000000       940.242554       1.57483673    
   1.10500801      -1.55176699      -0.00000000       1223.51904       1.57392192    
   1.05521798      -1.58604598      -0.00000000       1223.51904       1.57392192    
   0.00000000       0.00000000       0.00000000       1223.51904       1.57392192    
   1.15368605      -1.51592600      -0.00000000       1223.51904       1.57392192    
   1.29255998      -1.39939702      -0.00000000       1506.24438       1.57333779    
   1.24750996      -1.43970299      -0.00000000       1506.24438       1.57333779    
   0.00000000       0.00000000       0.00000000       1506.24438       1.57333779    
   1.33631003      -1.35768199      -0.00000000       1506.24438       1.57333779    
   0.00000000       0.00000000       0.00000000       1368.58313       1.57359278    
   1.24750996      -1.43970299      -0.00000000       1368.58313       1.57359278    
   1.20120299      -1.47855902      -0.00000000       1368.58313       1.57359278    