 VARIABLES="X" "Y" "Z" "abs(p) (Pa)" "angle(p) (rad)"
ZONE N=    802,E =     800, F=FEPOINT, ET=QUADRILATERAL
   1.90499997       0.00000000      -0.00000000       22.2678280       1.64270699    
   1.90404105      -6.04420006E-02  -0.00000000       22.2678280       1.64270699    
   0.00000000       0.00000000       0.00000000       22.2678280       1.64270699    
   1.90404105       6.04420006E-02  -0.00000000       22.2678280       1.64270699    
   1.88967395      0.241159007      -0.00000000       22.2563896       1.64274299    
   1.89637399      0.181081995      -0.00000000       22.2563896       1.64274299    
   0.00000000       0.00000000       0.00000000       22.2563896       1.64274299    
   1.88107097      0.300992996      -0.00000000       22.2563896       1.64274299    
   0.00000000       0.00000000       0.00000000       22.2646351       1.64271712    
   1.89637399      0.181081995      -0.00000000       22.2646351       1.64271712    
   1.90116501      0.120823003      -0.00000000       22.2646351       1.64271712    
   1.90404105       6.04420006E-02  -0.00000000       22.2646351       1.64271712    
   1.87057400      0.360523999      -0.00000000       22.2415886       1.64278960    
   1.88107097      0.300992996      -0.00000000       22.2415886       1.64278960    
   0.00000000       0.00000000       0.00000000       22.2415886       1.64278960    
   1.85819399      0.419692010      -0.00000000       22.2415886       1.64278960    
   1.80988598      0.594424009      -0.00000000       22.1869202       1.64296234    
   1.82783401      0.536701024      -0.00000000       22.1869202       1.64296234    
   0.00000000       0.00000000       0.00000000       22.1869202       1.64296234    
   1.79011405      0.651548028      -0.00000000       22.1869202       1.64296234    
   0.00000000       0.00000000       0.00000000       22.2188110       1.64286149    
   1.82783401      0.536701024      -0.00000000       22.2188110       1.64286149    
   1.84394205      0.478437006      -0.00000000       22.2188110       1.64286149    
   1.85819399      0.419692010      -0.00000000       22.2188110       1.64286149    
   1.76854098      0.708016992      -0.00000000       22.1438828       1.64309871    
   1.79011405      0.651548028      -0.00000000       22.1438828       1.64309871    
   0.00000000       0.00000000       0.00000000       22.1438828       1.64309871    
   1.74518704      0.763773024      -0.00000000       22.1438828       1.64309871    
   1.66468298      0.926204979      -0.00000000       22.0228081       1.64348471    
   1.69323206      0.872922003      -0.00000000       22.0228081       1.64348471    
   0.00000000       0.00000000       0.00000000       22.0228081       1.64348471    
   1.63445795      0.978555024      -0.00000000       22.0228081       1.64348471    
   0.00000000       0.00000000       0.00000000       22.0888672       1.64327383    
   1.69323206      0.872922003      -0.00000000       22.0888672       1.64327383    
   1.72007501      0.818759024      -0.00000000       22.0888672       1.64327383    
   1.74518704      0.763773024      -0.00000000       22.0888672       1.64327383    
   1.60258806       1.02992105      -0.00000000       21.9477463       1.64372504    
   1.63445795      0.978555024      -0.00000000       21.9477463       1.64372504    
   0.00000000       0.00000000       0.00000000       21.9477463       1.64372504    
   1.56910396       1.08024895      -0.00000000       21.9477463       1.64372504    
   1.45931494       1.22450995      -0.00000000       21.7917175       1.64422631    
   1.49743104       1.17759299      -0.00000000       21.7917175       1.64422631    
   0.00000000       0.00000000       0.00000000       21.7917175       1.64422631    
   1.41972899       1.27019501      -0.00000000       21.7917175       1.64422631    
   0.00000000       0.00000000       0.00000000       21.8675308       1.64398253    
   1.49743104       1.17759299      -0.00000000       21.8675308       1.64398253    
   1.53403997       1.12949002      -0.00000000       21.8675308       1.64398253    
   1.56910396       1.08024895      -0.00000000       21.8675308       1.64398253    
   1.37871301       1.31459999      -0.00000000       21.7540264       1.64434719    
   1.41972899       1.27019501      -0.00000000       21.7540264       1.64434719    
   0.00000000       0.00000000       0.00000000       21.7540264       1.64434719    
   1.33631003       1.35768199      -0.00000000       21.7540264       1.64434719    
   1.20120299       1.47855902      -0.00000000       21.8808765       1.64393878    
   1.24750996       1.43970299      -0.00000000       21.8808765       1.64393878    
   0.00000000       0.00000000       0.00000000       21.8808765       1.64393878    
   1.15368605       1.51592600      -0.00000000       21.8808765       1.64393878    
   0.00000000       0.00000000       0.00000000       21.7979584       1.64420557    
   1.24750996       1.43970299      -0.00000000       21.7979584       1.64420557    
   1.29255998       1.39939702      -0.00000000       21.7979584       1.64420557    
   1.33631003       1.35768199      -0.00000000       21.7979584       1.64420557    
   1.10500801       1.55176699      -0.00000000       21.9664574       1.64366412    
   1.15368605       1.51592600      -0.00000000       21.9664574       1.64366412    
   0.00000000       0.00000000       0.00000000       21.9664574       1.64366412    
   1.05521798       1.58604598      -0.00000000       21.9664574       1.64366412    
  0.899676025       1.67916906      -0.00000000       22.1119537       1.64319968    
  0.952499986       1.64977801      -0.00000000       22.1119537       1.64319968    
   0.00000000       0.00000000       0.00000000       22.1119537       1.64319968    
  0.845947027       1.70686805      -0.00000000       22.1119537       1.64319968    
   0.00000000       0.00000000       0.00000000       22.0446224       1.64341426    
  0.952499986       1.64977801      -0.00000000       22.0446224       1.64341426    
   1.00436401       1.61872697      -0.00000000       22.0446224       1.64341426    
   1.05521798       1.58604598      -0.00000000       22.0446224       1.64341426    
  0.791365981       1.73284900      -0.00000000       22.1662693       1.64302731    
  0.845947027       1.70686805      -0.00000000       22.1662693       1.64302731    
   0.00000000       0.00000000       0.00000000       22.1662693       1.64302731    
  0.735987008       1.75708497      -0.00000000       22.1662693       1.64302731    
  0.565632999       1.81908906      -0.00000000       22.2404652       1.64279282    
  0.623063982       1.80022705      -0.00000000       22.2404652       1.64279282    
   0.00000000       0.00000000       0.00000000       22.2404652       1.64279282    
  0.507632971       1.83611906      -0.00000000       22.2404652       1.64279282    
   0.00000000       0.00000000       0.00000000       22.2087536       1.64289296    
  0.623063982       1.80022705      -0.00000000       22.2087536       1.64289296    
  0.679867983       1.77955198      -0.00000000       22.2087536       1.64289296    
  0.735987008       1.75708497      -0.00000000       22.2087536       1.64289296    
  0.449120998       1.85130095      -0.00000000       22.2632370       1.64272118    
  0.507632971       1.83611906      -0.00000000       22.2632370       1.64272118    
   0.00000000       0.00000000       0.00000000       22.2632370       1.64272118    
  0.390157014       1.86461902      -0.00000000       22.2632370       1.64272118    
  0.211146995       1.89326203      -0.00000000       22.2878246       1.64264405    
  0.271109998       1.88560998      -0.00000000       22.2878246       1.64264405    
   0.00000000       0.00000000       0.00000000       22.2878246       1.64264405    
  0.150970995       1.89900804      -0.00000000       22.2878246       1.64264405    
   0.00000000       0.00000000       0.00000000       22.2784348       1.64267349    
  0.271109998       1.88560998      -0.00000000       22.2784348       1.64267349    
  0.330799997       1.87605906      -0.00000000       22.2784348       1.64267349    
  0.390157014       1.86461902      -0.00000000       22.2784348       1.64267349    
   9.06440020E-02   1.90284204      -0.00000000       22.2925835       1.64262915    
  0.150970995       1.89900804      -0.00000000       22.2925835       1.64262915    
   0.00000000       0.00000000       0.00000000       22.2925835       1.64262915    
   3.02249994E-02   1.90476000      -0.00000000       22.2925835       1.64262915    
 -0.150970995       1.89900804      -0.00000000       22.2868137       1.64264727    
  -9.06440020E-02   1.90284204      -0.00000000       22.2868137       1.64264727    
   0.00000000       0.00000000       0.00000000       22.2868137       1.64264727    
 -0.211146995       1.89326203      -0.00000000       22.2868137       1.64264727    
   0.00000000       0.00000000       0.00000000       22.2920628       1.64263082    
  -9.06440020E-02   1.90284204      -0.00000000       22.2920628       1.64263082    
  -3.02249994E-02   1.90476000      -0.00000000       22.2920628       1.64263082    
   3.02249994E-02   1.90476000      -0.00000000       22.2920628       1.64263082    
 -0.271109998       1.88560998      -0.00000000       22.2766685       1.64267910    
 -0.211146995       1.89326203      -0.00000000       22.2766685       1.64267910    
   0.00000000       0.00000000       0.00000000       22.2766685       1.64267910    
 -0.330799997       1.87605906      -0.00000000       22.2766685       1.64267910    
 -0.507632971       1.83611906      -0.00000000       22.2351837       1.64280963    
 -0.449120998       1.85130095      -0.00000000       22.2351837       1.64280963    
   0.00000000       0.00000000       0.00000000       22.2351837       1.64280963    
 -0.565632999       1.81908906      -0.00000000       22.2351837       1.64280963    
   0.00000000       0.00000000       0.00000000       22.2600079       1.64273131    
 -0.449120998       1.85130095      -0.00000000       22.2600079       1.64273131    
 -0.390157014       1.86461902      -0.00000000       22.2600079       1.64273131    
 -0.330799997       1.87605906      -0.00000000       22.2600079       1.64273131    
 -0.623063982       1.80022705      -0.00000000       22.2011375       1.64291704    
 -0.565632999       1.81908906      -0.00000000       22.2011375       1.64291704    
   0.00000000       0.00000000       0.00000000       22.2011375       1.64291704    
 -0.679867983       1.77955198      -0.00000000       22.2011375       1.64291704    
 -0.845947027       1.70686805      -0.00000000       22.0996170       1.64323926    
 -0.791365981       1.73284900      -0.00000000       22.0996170       1.64323926    
   0.00000000       0.00000000       0.00000000       22.0996170       1.64323926    
 -0.899676025       1.67916906      -0.00000000       22.0996170       1.64323926    
   0.00000000       0.00000000       0.00000000       22.1562023       1.64305949    
 -0.791365981       1.73284900      -0.00000000       22.1562023       1.64305949    
 -0.735987008       1.75708497      -0.00000000       22.1562023       1.64305949    
 -0.679867983       1.77955198      -0.00000000       22.1562023       1.64305949    
 -0.952499986       1.64977801      -0.00000000       22.0321102       1.64345455    
 -0.899676025       1.67916906      -0.00000000       22.0321102       1.64345455    
   0.00000000       0.00000000       0.00000000       22.0321102       1.64345455    
  -1.00436401       1.61872697      -0.00000000       22.0321102       1.64345455    
  -1.15368605       1.51592600      -0.00000000       21.8744392       1.64395988    
  -1.10500801       1.55176699      -0.00000000       21.8744392       1.64395988    
   0.00000000       0.00000000       0.00000000       21.8744392       1.64395988    
  -1.20120299       1.47855902      -0.00000000       21.8744392       1.64395988    
   0.00000000       0.00000000       0.00000000       21.9557743       1.64369881    
  -1.10500801       1.55176699      -0.00000000       21.9557743       1.64369881    
  -1.05521798       1.58604598      -0.00000000       21.9557743       1.64369881    
  -1.00436401       1.61872697      -0.00000000       21.9557743       1.64369881    
  -1.24750996       1.43970299      -0.00000000       21.7975426       1.64420700    
  -1.20120299       1.47855902      -0.00000000       21.7975426       1.64420700    
   0.00000000       0.00000000       0.00000000       21.7975426       1.64420700    
  -1.29255998       1.39939702      -0.00000000       21.7975426       1.64420700    
  -1.41972899       1.27019501      -0.00000000       21.8029232       1.64418912    
  -1.37871301       1.31459999      -0.00000000       21.8029232       1.64418912    
   0.00000000       0.00000000       0.00000000       21.8029232       1.64418912    
  -1.45931494       1.22450995      -0.00000000       21.8029232       1.64418912    
   0.00000000       0.00000000       0.00000000       21.7592926       1.64432979    
  -1.37871301       1.31459999      -0.00000000       21.7592926       1.64432979    
  -1.33631003       1.35768199      -0.00000000       21.7592926       1.64432979    
  -1.29255998       1.39939702      -0.00000000       21.7592926       1.64432979    
  -1.49743104       1.17759299      -0.00000000       21.8853855       1.64392400    
  -1.45931494       1.22450995      -0.00000000       21.8853855       1.64392400    
   0.00000000       0.00000000       0.00000000       21.8853855       1.64392400    
  -1.53403997       1.12949002      -0.00000000       21.8853855       1.64392400    
  -1.63445795      0.978555024      -0.00000000       22.0483246       1.64340222    
  -1.60258806       1.02992105      -0.00000000       22.0483246       1.64340222    
   0.00000000       0.00000000       0.00000000       22.0483246       1.64340222    
  -1.66468298      0.926204979      -0.00000000       22.0483246       1.64340222    
   0.00000000       0.00000000       0.00000000       21.9705505       1.64365077    
  -1.60258806       1.02992105      -0.00000000       21.9705505       1.64365077    
  -1.56910396       1.08024895      -0.00000000       21.9705505       1.64365077    
  -1.53403997       1.12949002      -0.00000000       21.9705505       1.64365077    
  -1.69323206      0.872922003      -0.00000000       22.1152821       1.64318895    
  -1.66468298      0.926204979      -0.00000000       22.1152821       1.64318895    
   0.00000000       0.00000000       0.00000000       22.1152821       1.64318895    
  -1.72007501      0.818759024      -0.00000000       22.1152821       1.64318895    
  -1.79011405      0.651548028      -0.00000000       22.2116241       1.64288366    
  -1.76854098      0.708016992      -0.00000000       22.2116241       1.64288366    
   0.00000000       0.00000000       0.00000000       22.2116241       1.64288366    
  -1.80988598      0.594424009      -0.00000000       22.2116241       1.64288366    
   0.00000000       0.00000000       0.00000000       22.1693573       1.64301741    
  -1.76854098      0.708016992      -0.00000000       22.1693573       1.64301741    
  -1.74518704      0.763773024      -0.00000000       22.1693573       1.64301741    
  -1.72007501      0.818759024      -0.00000000       22.1693573       1.64301741    
  -1.82783401      0.536701024      -0.00000000       22.2430763       1.64278460    
  -1.80988598      0.594424009      -0.00000000       22.2430763       1.64278460    
   0.00000000       0.00000000       0.00000000       22.2430763       1.64278460    
  -1.84394205      0.478437006      -0.00000000       22.2430763       1.64278460    
  -1.88107097      0.300992996      -0.00000000       22.2805767       1.64266670    
  -1.87057400      0.360523999      -0.00000000       22.2805767       1.64266670    
   0.00000000       0.00000000       0.00000000       22.2805767       1.64266670    
  -1.88967395      0.241159007      -0.00000000       22.2805767       1.64266670    
   0.00000000       0.00000000       0.00000000       22.2655773       1.64271379    
  -1.87057400      0.360523999      -0.00000000       22.2655773       1.64271379    
  -1.85819399      0.419692010      -0.00000000       22.2655773       1.64271379    
  -1.84394205      0.478437006      -0.00000000       22.2655773       1.64271379    
  -1.89637399      0.181081995      -0.00000000       22.2898426       1.64263773    
  -1.88967395      0.241159007      -0.00000000       22.2898426       1.64263773    
   0.00000000       0.00000000       0.00000000       22.2898426       1.64263773    
  -1.90116501      0.120823003      -0.00000000       22.2898426       1.64263773    
  -1.90404105      -6.04420006E-02  -0.00000000       22.2938862       1.64262509    
  -1.90499997       0.00000000      -0.00000000       22.2938862       1.64262509    
   0.00000000       0.00000000       0.00000000       22.2938862       1.64262509    
  -1.90116501     -0.120823003      -0.00000000       22.2938862       1.64262509    
   0.00000000       0.00000000       0.00000000       22.2944450       1.64262331    
  -1.90499997       0.00000000      -0.00000000       22.2944450       1.64262331    
  -1.90404105       6.04420006E-02  -0.00000000       22.2944450       1.64262331    
  -1.90116501      0.120823003      -0.00000000       22.2944450       1.64262331    
  -1.89637399     -0.181081995      -0.00000000       22.2884579       1.64264214    
  -1.90116501     -0.120823003      -0.00000000       22.2884579       1.64264214    
   0.00000000       0.00000000       0.00000000       22.2884579       1.64264214    
  -1.88967395     -0.241159007      -0.00000000       22.2884579       1.64264214    
  -1.85819399     -0.419692010      -0.00000000       22.2613811       1.64272702    
  -1.87057400     -0.360523999      -0.00000000       22.2613811       1.64272702    
   0.00000000       0.00000000       0.00000000       22.2613811       1.64272702    
  -1.84394205     -0.478437006      -0.00000000       22.2613811       1.64272702    
   0.00000000       0.00000000       0.00000000       22.2782154       1.64267421    
  -1.87057400     -0.360523999      -0.00000000       22.2782154       1.64267421    
  -1.88107097     -0.300992996      -0.00000000       22.2782154       1.64267421    
  -1.88967395     -0.241159007      -0.00000000       22.2782154       1.64267421    
  -1.82783401     -0.536701024      -0.00000000       22.2364178       1.64280558    
  -1.84394205     -0.478437006      -0.00000000       22.2364178       1.64280558    
   0.00000000       0.00000000       0.00000000       22.2364178       1.64280558    
  -1.80988598     -0.594424009      -0.00000000       22.2364178       1.64280558    
  -1.74518704     -0.763773024      -0.00000000       22.1570244       1.64305675    
  -1.76854098     -0.708016992      -0.00000000       22.1570244       1.64305675    
   0.00000000       0.00000000       0.00000000       22.1570244       1.64305675    
  -1.72007501     -0.818759024      -0.00000000       22.1570244       1.64305675    
   0.00000000       0.00000000       0.00000000       22.2021885       1.64291370    
  -1.76854098     -0.708016992      -0.00000000       22.2021885       1.64291370    
  -1.79011405     -0.651548028      -0.00000000       22.2021885       1.64291370    
  -1.80988598     -0.594424009      -0.00000000       22.2021885       1.64291370    
  -1.69323206     -0.872922003      -0.00000000       22.1002522       1.64323723    
  -1.72007501     -0.818759024      -0.00000000       22.1002522       1.64323723    
   0.00000000       0.00000000       0.00000000       22.1002522       1.64323723    
  -1.66468298     -0.926204979      -0.00000000       22.1002522       1.64323723    
  -1.56910396      -1.08024895      -0.00000000       21.9559097       1.64369845    
  -1.60258806      -1.02992105      -0.00000000       21.9559097       1.64369845    
   0.00000000       0.00000000       0.00000000       21.9559097       1.64369845    
  -1.53403997      -1.12949002      -0.00000000       21.9559097       1.64369845    
   0.00000000       0.00000000       0.00000000       22.0325356       1.64345324    
  -1.60258806      -1.02992105      -0.00000000       22.0325356       1.64345324    
  -1.63445795     -0.978555024      -0.00000000       22.0325356       1.64345324    
  -1.66468298     -0.926204979      -0.00000000       22.0325356       1.64345324    
  -1.49743104      -1.17759299      -0.00000000       21.8743305       1.64396024    
  -1.53403997      -1.12949002      -0.00000000       21.8743305       1.64396024    
   0.00000000       0.00000000       0.00000000       21.8743305       1.64396024    
  -1.45931494      -1.22450995      -0.00000000       21.8743305       1.64396024    
  -1.33631003      -1.35768199      -0.00000000       21.7589741       1.64433074    
  -1.37871301      -1.31459999      -0.00000000       21.7589741       1.64433074    
   0.00000000       0.00000000       0.00000000       21.7589741       1.64433074    
  -1.29255998      -1.39939702      -0.00000000       21.7589741       1.64433074    
   0.00000000       0.00000000       0.00000000       21.7972622       1.64420784    
  -1.37871301      -1.31459999      -0.00000000       21.7972622       1.64420784    
  -1.41972899      -1.27019501      -0.00000000       21.7972622       1.64420784    
  -1.45931494      -1.22450995      -0.00000000       21.7972622       1.64420784    
  -1.24750996      -1.43970299      -0.00000000       21.8026562       1.64418995    
  -1.29255998      -1.39939702      -0.00000000       21.8026562       1.64418995    
   0.00000000       0.00000000       0.00000000       21.8026562       1.64418995    
  -1.20120299      -1.47855902      -0.00000000       21.8026562       1.64418995    
  -1.05521798      -1.58604598      -0.00000000       21.9698372       1.64365304    
  -1.10500801      -1.55176699      -0.00000000       21.9698372       1.64365304    
   0.00000000       0.00000000       0.00000000       21.9698372       1.64365304    
  -1.00436401      -1.61872697      -0.00000000       21.9698372       1.64365304    
   0.00000000       0.00000000       0.00000000       21.8849583       1.64392543    
  -1.10500801      -1.55176699      -0.00000000       21.8849583       1.64392543    
  -1.15368605      -1.51592600      -0.00000000       21.8849583       1.64392543    
  -1.20120299      -1.47855902      -0.00000000       21.8849583       1.64392543    
 -0.952499986      -1.64977801      -0.00000000       22.0474033       1.64340520    
  -1.00436401      -1.61872697      -0.00000000       22.0474033       1.64340520    
   0.00000000       0.00000000       0.00000000       22.0474033       1.64340520    
 -0.899676025      -1.67916906      -0.00000000       22.0474033       1.64340520    
 -0.735987008      -1.75708497      -0.00000000       22.1680546       1.64302158    
 -0.791365981      -1.73284900      -0.00000000       22.1680546       1.64302158    
   0.00000000       0.00000000       0.00000000       22.1680546       1.64302158    
 -0.679867983      -1.77955198      -0.00000000       22.1680546       1.64302158    
   0.00000000       0.00000000       0.00000000       22.1141720       1.64319253    
 -0.791365981      -1.73284900      -0.00000000       22.1141720       1.64319253    
 -0.845947027      -1.70686805      -0.00000000       22.1141720       1.64319253    
 -0.899676025      -1.67916906      -0.00000000       22.1141720       1.64319253    
 -0.623063982      -1.80022705      -0.00000000       22.2101669       1.64288843    
 -0.679867983      -1.77955198      -0.00000000       22.2101669       1.64288843    
   0.00000000       0.00000000       0.00000000       22.2101669       1.64288843    
 -0.565632999      -1.81908906      -0.00000000       22.2101669       1.64288843    
 -0.390157014      -1.86461902      -0.00000000       22.2638206       1.64271939    
 -0.449120998      -1.85130095      -0.00000000       22.2638206       1.64271939    
   0.00000000       0.00000000       0.00000000       22.2638206       1.64271939    
 -0.330799997      -1.87605906      -0.00000000       22.2638206       1.64271939    
   0.00000000       0.00000000       0.00000000       22.2414665       1.64278960    
 -0.449120998      -1.85130095      -0.00000000       22.2414665       1.64278960    
 -0.507632971      -1.83611906      -0.00000000       22.2414665       1.64278960    
 -0.565632999      -1.81908906      -0.00000000       22.2414665       1.64278960    
 -0.271109998      -1.88560998      -0.00000000       22.2786732       1.64267266    
 -0.330799997      -1.87605906      -0.00000000       22.2786732       1.64267266    
   0.00000000       0.00000000       0.00000000       22.2786732       1.64267266    
 -0.211146995      -1.89326203      -0.00000000       22.2786732       1.64267266    
  -3.02249994E-02  -1.90476000      -0.00000000       22.2923126       1.64262998    
  -9.06440020E-02  -1.90284204      -0.00000000       22.2923126       1.64262998    
   0.00000000       0.00000000       0.00000000       22.2923126       1.64262998    
   3.02249994E-02  -1.90476000      -0.00000000       22.2923126       1.64262998    
   0.00000000       0.00000000       0.00000000       22.2878304       1.64264405    
  -9.06440020E-02  -1.90284204      -0.00000000       22.2878304       1.64264405    
 -0.150970995      -1.89900804      -0.00000000       22.2878304       1.64264405    
 -0.211146995      -1.89326203      -0.00000000       22.2878304       1.64264405    
   9.06440020E-02  -1.90284204      -0.00000000       22.2915897       1.64263225    
   3.02249994E-02  -1.90476000      -0.00000000       22.2915897       1.64263225    
   0.00000000       0.00000000       0.00000000       22.2915897       1.64263225    
  0.150970995      -1.89900804      -0.00000000       22.2915897       1.64263225    
  0.330799997      -1.87605906      -0.00000000       22.2756443       1.64268231    
  0.271109998      -1.88560998      -0.00000000       22.2756443       1.64268231    
   0.00000000       0.00000000       0.00000000       22.2756443       1.64268231    
  0.390157014      -1.86461902      -0.00000000       22.2756443       1.64268231    
   0.00000000       0.00000000       0.00000000       22.2860985       1.64264953    
  0.271109998      -1.88560998      -0.00000000       22.2860985       1.64264953    
  0.211146995      -1.89326203      -0.00000000       22.2860985       1.64264953    
  0.150970995      -1.89900804      -0.00000000       22.2860985       1.64264953    
  0.449120998      -1.85130095      -0.00000000       22.2585087       1.64273608    
  0.390157014      -1.86461902      -0.00000000       22.2585087       1.64273608    
   0.00000000       0.00000000       0.00000000       22.2585087       1.64273608    
  0.507632971      -1.83611906      -0.00000000       22.2585087       1.64273608    
  0.679867983      -1.77955198      -0.00000000       22.1987934       1.64292455    
  0.623063982      -1.80022705      -0.00000000       22.1987934       1.64292455    
   0.00000000       0.00000000       0.00000000       22.1987934       1.64292455    
  0.735987008      -1.75708497      -0.00000000       22.1987934       1.64292455    
   0.00000000       0.00000000       0.00000000       22.2332401       1.64281583    
  0.623063982      -1.80022705      -0.00000000       22.2332401       1.64281583    
  0.565632999      -1.81908906      -0.00000000       22.2332401       1.64281583    
  0.507632971      -1.83611906      -0.00000000       22.2332401       1.64281583    
  0.791365981      -1.73284900      -0.00000000       22.1533737       1.64306843    
  0.735987008      -1.75708497      -0.00000000       22.1533737       1.64306843    
   0.00000000       0.00000000       0.00000000       22.1533737       1.64306843    
  0.845947027      -1.70686805      -0.00000000       22.1533737       1.64306843    
   1.00436401      -1.61872697      -0.00000000       22.0281219       1.64346743    
  0.952499986      -1.64977801      -0.00000000       22.0281219       1.64346743    
   0.00000000       0.00000000       0.00000000       22.0281219       1.64346743    
   1.05521798      -1.58604598      -0.00000000       22.0281219       1.64346743    
   0.00000000       0.00000000       0.00000000       22.0962524       1.64325011    
  0.952499986      -1.64977801      -0.00000000       22.0962524       1.64325011    
  0.899676025      -1.67916906      -0.00000000       22.0962524       1.64325011    
  0.845947027      -1.70686805      -0.00000000       22.0962524       1.64325011    
   1.10500801      -1.55176699      -0.00000000       21.9510708       1.64371419    
   1.05521798      -1.58604598      -0.00000000       21.9510708       1.64371419    
   0.00000000       0.00000000       0.00000000       21.9510708       1.64371419    
   1.15368605      -1.51592600      -0.00000000       21.9510708       1.64371419    
   1.29255998      -1.39939702      -0.00000000       21.7913055       1.64422739    
   1.24750996      -1.43970299      -0.00000000       21.7913055       1.64422739    
   0.00000000       0.00000000       0.00000000       21.7913055       1.64422739    
   1.33631003      -1.35768199      -0.00000000       21.7913055       1.64422739    
   0.00000000       0.00000000       0.00000000       21.8689365       1.64397788    
   1.24750996      -1.43970299      -0.00000000       21.8689365       1.64397788    
   1.20120299      -1.47855902      -0.00000000       21.8689365       1.64397788    