 VARIABLES="X" "Y" "Z" "abs(p) (Pa)" "angle(p) (rad)"
ZONE N=    802,E =     800, F=FEPOINT, ET=QUADRILATERAL
   1.90499997       0.00000000      -0.00000000       58.1277695       2.10755563    
   1.90404105      -6.04420006E-02  -0.00000000       58.1277695       2.10755563    
   0.00000000       0.00000000       0.00000000       58.1277695       2.10755563    
   1.90404105       6.04420006E-02  -0.00000000       58.1277695       2.10755563    
   1.88967395      0.241159007      -0.00000000       58.0584488       2.10780025    
   1.89637399      0.181081995      -0.00000000       58.0584488       2.10780025    
   0.00000000       0.00000000       0.00000000       58.0584488       2.10780025    
   1.88107097      0.300992996      -0.00000000       58.0584488       2.10780025    
   0.00000000       0.00000000       0.00000000       58.1141090       2.10759830    
   1.89637399      0.181081995      -0.00000000       58.1141090       2.10759830    
   1.90116501      0.120823003      -0.00000000       58.1141090       2.10759830    
   1.90404105       6.04420006E-02  -0.00000000       58.1141090       2.10759830    
   1.87057400      0.360523999      -0.00000000       57.9461594       2.10821390    
   1.88107097      0.300992996      -0.00000000       57.9461594       2.10821390    
   0.00000000       0.00000000       0.00000000       57.9461594       2.10821390    
   1.85819399      0.419692010      -0.00000000       57.9461594       2.10821390    
   1.80988598      0.594424009      -0.00000000       57.4828110       2.10994673    
   1.82783401      0.536701024      -0.00000000       57.4828110       2.10994673    
   0.00000000       0.00000000       0.00000000       57.4828110       2.10994673    
   1.79011405      0.651548028      -0.00000000       57.4828110       2.10994673    
   0.00000000       0.00000000       0.00000000       57.7638435       2.10889792    
   1.82783401      0.536701024      -0.00000000       57.7638435       2.10889792    
   1.84394205      0.478437006      -0.00000000       57.7638435       2.10889792    
   1.85819399      0.419692010      -0.00000000       57.7638435       2.10889792    
   1.76854098      0.708016992      -0.00000000       57.0691032       2.11149883    
   1.79011405      0.651548028      -0.00000000       57.0691032       2.11149883    
   0.00000000       0.00000000       0.00000000       57.0691032       2.11149883    
   1.74518704      0.763773024      -0.00000000       57.0691032       2.11149883    
   1.66468298      0.926204979      -0.00000000       55.7698288       2.11626911    
   1.69323206      0.872922003      -0.00000000       55.7698288       2.11626911    
   0.00000000       0.00000000       0.00000000       55.7698288       2.11626911    
   1.63445795      0.978555024      -0.00000000       55.7698288       2.11626911    
   0.00000000       0.00000000       0.00000000       56.5049057       2.11359262    
   1.69323206      0.872922003      -0.00000000       56.5049057       2.11359262    
   1.72007501      0.818759024      -0.00000000       56.5049057       2.11359262    
   1.74518704      0.763773024      -0.00000000       56.5049057       2.11359262    
   1.60258806       1.02992105      -0.00000000       54.8820724       2.11944246    
   1.63445795      0.978555024      -0.00000000       54.8820724       2.11944246    
   0.00000000       0.00000000       0.00000000       54.8820724       2.11944246    
   1.56910396       1.08024895      -0.00000000       54.8820724       2.11944246    
   1.45931494       1.22450995      -0.00000000       52.8747787       2.12619233    
   1.49743104       1.17759299      -0.00000000       52.8747787       2.12619233    
   0.00000000       0.00000000       0.00000000       52.8747787       2.12619233    
   1.41972899       1.27019501      -0.00000000       52.8747787       2.12619233    
   0.00000000       0.00000000       0.00000000       53.8730583       2.12292814    
   1.49743104       1.17759299      -0.00000000       53.8730583       2.12292814    
   1.53403997       1.12949002      -0.00000000       53.8730583       2.12292814    
   1.56910396       1.08024895      -0.00000000       53.8730583       2.12292814    
   1.37871301       1.31459999      -0.00000000       52.3537483       2.12777710    
   1.41972899       1.27019501      -0.00000000       52.3537483       2.12777710    
   0.00000000       0.00000000       0.00000000       52.3537483       2.12777710    
   1.33631003       1.35768199      -0.00000000       52.3537483       2.12777710    
   1.20120299       1.47855902      -0.00000000       53.9683495       2.12231898    
   1.24750996       1.43970299      -0.00000000       53.9683495       2.12231898    
   0.00000000       0.00000000       0.00000000       53.9683495       2.12231898    
   1.15368605       1.51592600      -0.00000000       53.9683495       2.12231898    
   0.00000000       0.00000000       0.00000000       52.9088821       2.12590456    
   1.24750996       1.43970299      -0.00000000       52.9088821       2.12590456    
   1.29255998       1.39939702      -0.00000000       52.9088821       2.12590456    
   1.33631003       1.35768199      -0.00000000       52.9088821       2.12590456    
   1.10500801       1.55176699      -0.00000000       55.0214348       2.11865330    
   1.15368605       1.51592600      -0.00000000       55.0214348       2.11865330    
   0.00000000       0.00000000       0.00000000       55.0214348       2.11865330    
   1.05521798       1.58604598      -0.00000000       55.0214348       2.11865330    
  0.899676025       1.67916906      -0.00000000       56.6854362       2.11271214    
  0.952499986       1.64977801      -0.00000000       56.6854362       2.11271214    
   0.00000000       0.00000000       0.00000000       56.6854362       2.11271214    
  0.845947027       1.70686805      -0.00000000       56.6854362       2.11271214    
   0.00000000       0.00000000       0.00000000       55.9359665       2.11540890    
  0.952499986       1.64977801      -0.00000000       55.9359665       2.11540890    
   1.00436401       1.61872697      -0.00000000       55.9359665       2.11540890    
   1.05521798       1.58604598      -0.00000000       55.9359665       2.11540890    
  0.791365981       1.73284900      -0.00000000       57.2589836       2.11063004    
  0.845947027       1.70686805      -0.00000000       57.2589836       2.11063004    
   0.00000000       0.00000000       0.00000000       57.2589836       2.11063004    
  0.735987008       1.75708497      -0.00000000       57.2589836       2.11063004    
  0.565632999       1.81908906      -0.00000000       57.9706650       2.10807109    
  0.623063982       1.80022705      -0.00000000       57.9706650       2.10807109    
   0.00000000       0.00000000       0.00000000       57.9706650       2.10807109    
  0.507632971       1.83611906      -0.00000000       57.9706650       2.10807109    
   0.00000000       0.00000000       0.00000000       57.6767998       2.10912013    
  0.623063982       1.80022705      -0.00000000       57.6767998       2.10912013    
  0.679867983       1.77955198      -0.00000000       57.6767998       2.10912013    
  0.735987008       1.75708497      -0.00000000       57.6767998       2.10912013    
  0.449120998       1.85130095      -0.00000000       58.1704750       2.10735464    
  0.507632971       1.83611906      -0.00000000       58.1704750       2.10735464    
   0.00000000       0.00000000       0.00000000       58.1704750       2.10735464    
  0.390157014       1.86461902      -0.00000000       58.1704750       2.10735464    
  0.211146995       1.89326203      -0.00000000       58.3715706       2.10667276    
  0.271109998       1.88560998      -0.00000000       58.3715706       2.10667276    
   0.00000000       0.00000000       0.00000000       58.3715706       2.10667276    
  0.150970995       1.89900804      -0.00000000       58.3715706       2.10667276    
   0.00000000       0.00000000       0.00000000       58.2988052       2.10691547    
  0.271109998       1.88560998      -0.00000000       58.2988052       2.10691547    
  0.330799997       1.87605906      -0.00000000       58.2988052       2.10691547    
  0.390157014       1.86461902      -0.00000000       58.2988052       2.10691547    
   9.06440020E-02   1.90284204      -0.00000000       58.4054031       2.10657120    
  0.150970995       1.89900804      -0.00000000       58.4054031       2.10657120    
   0.00000000       0.00000000       0.00000000       58.4054031       2.10657120    
   3.02249994E-02   1.90476000      -0.00000000       58.4054031       2.10657120    
 -0.150970995       1.89900804      -0.00000000       58.3679695       2.10669088    
  -9.06440020E-02   1.90284204      -0.00000000       58.3679695       2.10669088    
   0.00000000       0.00000000       0.00000000       58.3679695       2.10669088    
 -0.211146995       1.89326203      -0.00000000       58.3679695       2.10669088    
   0.00000000       0.00000000       0.00000000       58.4055443       2.10657358    
  -9.06440020E-02   1.90284204      -0.00000000       58.4055443       2.10657358    
  -3.02249994E-02   1.90476000      -0.00000000       58.4055443       2.10657358    
   3.02249994E-02   1.90476000      -0.00000000       58.4055443       2.10657358    
 -0.271109998       1.88560998      -0.00000000       58.2891846       2.10696769    
 -0.211146995       1.89326203      -0.00000000       58.2891846       2.10696769    
   0.00000000       0.00000000       0.00000000       58.2891846       2.10696769    
 -0.330799997       1.87605906      -0.00000000       58.2891846       2.10696769    
 -0.507632971       1.83611906      -0.00000000       57.9422874       2.10822201    
 -0.449120998       1.85130095      -0.00000000       57.9422874       2.10822201    
   0.00000000       0.00000000       0.00000000       57.9422874       2.10822201    
 -0.565632999       1.81908906      -0.00000000       57.9422874       2.10822201    
   0.00000000       0.00000000       0.00000000       58.1516075       2.10745621    
 -0.449120998       1.85130095      -0.00000000       58.1516075       2.10745621    
 -0.390157014       1.86461902      -0.00000000       58.1516075       2.10745621    
 -0.330799997       1.87605906      -0.00000000       58.1516075       2.10745621    
 -0.623063982       1.80022705      -0.00000000       57.6346054       2.10935950    
 -0.565632999       1.81908906      -0.00000000       57.6346054       2.10935950    
   0.00000000       0.00000000       0.00000000       57.6346054       2.10935950    
 -0.679867983       1.77955198      -0.00000000       57.6346054       2.10935950    
 -0.845947027       1.70686805      -0.00000000       56.6112099       2.11315942    
 -0.791365981       1.73284900      -0.00000000       56.6112099       2.11315942    
   0.00000000       0.00000000       0.00000000       56.6112099       2.11315942    
 -0.899676025       1.67916906      -0.00000000       56.6112099       2.11315942    
   0.00000000       0.00000000       0.00000000       57.1957016       2.11099505    
 -0.791365981       1.73284900      -0.00000000       57.1957016       2.11099505    
 -0.735987008       1.75708497      -0.00000000       57.1957016       2.11099505    
 -0.679867983       1.77955198      -0.00000000       57.1957016       2.11099505    
 -0.952499986       1.64977801      -0.00000000       55.8607750       2.11589265    
 -0.899676025       1.67916906      -0.00000000       55.8607750       2.11589265    
   0.00000000       0.00000000       0.00000000       55.8607750       2.11589265    
  -1.00436401       1.61872697      -0.00000000       55.8607750       2.11589265    
  -1.15368605       1.51592600      -0.00000000       53.9386787       2.12261748    
  -1.10500801       1.55176699      -0.00000000       53.9386787       2.12261748    
   0.00000000       0.00000000       0.00000000       53.9386787       2.12261748    
  -1.20120299       1.47855902      -0.00000000       53.9386787       2.12261748    
   0.00000000       0.00000000       0.00000000       54.9599228       2.11909986    
  -1.10500801       1.55176699      -0.00000000       54.9599228       2.11909986    
  -1.05521798       1.58604598      -0.00000000       54.9599228       2.11909986    
  -1.00436401       1.61872697      -0.00000000       54.9599228       2.11909986    
  -1.24750996       1.43970299      -0.00000000       52.9311943       2.12590766    
  -1.20120299       1.47855902      -0.00000000       52.9311943       2.12590766    
   0.00000000       0.00000000       0.00000000       52.9311943       2.12590766    
  -1.29255998       1.39939702      -0.00000000       52.9311943       2.12590766    
  -1.41972899       1.27019501      -0.00000000       52.9579201       2.12566328    
  -1.37871301       1.31459999      -0.00000000       52.9579201       2.12566328    
   0.00000000       0.00000000       0.00000000       52.9579201       2.12566328    
  -1.45931494       1.22450995      -0.00000000       52.9579201       2.12566328    
   0.00000000       0.00000000       0.00000000       52.4057808       2.12750840    
  -1.37871301       1.31459999      -0.00000000       52.4057808       2.12750840    
  -1.33631003       1.35768199      -0.00000000       52.4057808       2.12750840    
  -1.29255998       1.39939702      -0.00000000       52.4057808       2.12750840    
  -1.49743104       1.17759299      -0.00000000       54.0125923       2.12211895    
  -1.45931494       1.22450995      -0.00000000       54.0125923       2.12211895    
   0.00000000       0.00000000       0.00000000       54.0125923       2.12211895    
  -1.53403997       1.12949002      -0.00000000       54.0125923       2.12211895    
  -1.63445795      0.978555024      -0.00000000       55.9729538       2.11525941    
  -1.60258806       1.02992105      -0.00000000       55.9729538       2.11525941    
   0.00000000       0.00000000       0.00000000       55.9729538       2.11525941    
  -1.66468298      0.926204979      -0.00000000       55.9729538       2.11525941    
   0.00000000       0.00000000       0.00000000       55.0616798       2.11848021    
  -1.60258806       1.02992105      -0.00000000       55.0616798       2.11848021    
  -1.56910396       1.08024895      -0.00000000       55.0616798       2.11848021    
  -1.53403997       1.12949002      -0.00000000       55.0616798       2.11848021    
  -1.69323206      0.872922003      -0.00000000       56.7194443       2.11258316    
  -1.66468298      0.926204979      -0.00000000       56.7194443       2.11258316    
   0.00000000       0.00000000       0.00000000       56.7194443       2.11258316    
  -1.72007501      0.818759024      -0.00000000       56.7194443       2.11258316    
  -1.79011405      0.651548028      -0.00000000       57.7045898       2.10902500    
  -1.76854098      0.708016992      -0.00000000       57.7045898       2.10902500    
   0.00000000       0.00000000       0.00000000       57.7045898       2.10902500    
  -1.80988598      0.594424009      -0.00000000       57.7045898       2.10902500    
   0.00000000       0.00000000       0.00000000       57.2896271       2.11052346    
  -1.76854098      0.708016992      -0.00000000       57.2896271       2.11052346    
  -1.74518704      0.763773024      -0.00000000       57.2896271       2.11052346    
  -1.72007501      0.818759024      -0.00000000       57.2896271       2.11052346    
  -1.82783401      0.536701024      -0.00000000       57.9958305       2.10798812    
  -1.80988598      0.594424009      -0.00000000       57.9958305       2.10798812    
   0.00000000       0.00000000       0.00000000       57.9958305       2.10798812    
  -1.84394205      0.478437006      -0.00000000       57.9958305       2.10798812    
  -1.88107097      0.300992996      -0.00000000       58.3204765       2.10685086    
  -1.87057400      0.360523999      -0.00000000       58.3204765       2.10685086    
   0.00000000       0.00000000       0.00000000       58.3204765       2.10685086    
  -1.88967395      0.241159007      -0.00000000       58.3204765       2.10685086    
   0.00000000       0.00000000       0.00000000       58.1935349       2.10728574    
  -1.87057400      0.360523999      -0.00000000       58.1935349       2.10728574    
  -1.85819399      0.419692010      -0.00000000       58.1935349       2.10728574    
  -1.84394205      0.478437006      -0.00000000       58.1935349       2.10728574    
  -1.89637399      0.181081995      -0.00000000       58.3924675       2.10660934    
  -1.88967395      0.241159007      -0.00000000       58.3924675       2.10660934    
   0.00000000       0.00000000       0.00000000       58.3924675       2.10660934    
  -1.90116501      0.120823003      -0.00000000       58.3924675       2.10660934    
  -1.90404105      -6.04420006E-02  -0.00000000       58.4263535       2.10651183    
  -1.90499997       0.00000000      -0.00000000       58.4263535       2.10651183    
   0.00000000       0.00000000       0.00000000       58.4263535       2.10651183    
  -1.90116501     -0.120823003      -0.00000000       58.4263535       2.10651183    
   0.00000000       0.00000000       0.00000000       58.4261398       2.10651135    
  -1.90499997       0.00000000      -0.00000000       58.4261398       2.10651135    
  -1.90404105       6.04420006E-02  -0.00000000       58.4261398       2.10651135    
  -1.90116501      0.120823003      -0.00000000       58.4261398       2.10651135    
  -1.89637399     -0.181081995      -0.00000000       58.3888359       2.10663605    
  -1.90116501     -0.120823003      -0.00000000       58.3888359       2.10663605    
   0.00000000       0.00000000       0.00000000       58.3888359       2.10663605    
  -1.88967395     -0.241159007      -0.00000000       58.3888359       2.10663605    
  -1.85819399     -0.419692010      -0.00000000       58.1706467       2.10740805    
  -1.87057400     -0.360523999      -0.00000000       58.1706467       2.10740805    
   0.00000000       0.00000000       0.00000000       58.1706467       2.10740805    
  -1.84394205     -0.478437006      -0.00000000       58.1706467       2.10740805    
   0.00000000       0.00000000       0.00000000       58.3094482       2.10691309    
  -1.87057400     -0.360523999      -0.00000000       58.3094482       2.10691309    
  -1.88107097     -0.300992996      -0.00000000       58.3094482       2.10691309    
  -1.88967395     -0.241159007      -0.00000000       58.3094482       2.10691309    
  -1.82783401     -0.536701024      -0.00000000       57.9593964       2.10817909    
  -1.84394205     -0.478437006      -0.00000000       57.9593964       2.10817909    
   0.00000000       0.00000000       0.00000000       57.9593964       2.10817909    
  -1.80988598     -0.594424009      -0.00000000       57.9593964       2.10817909    
  -1.74518704     -0.763773024      -0.00000000       57.2079277       2.11096382    
  -1.76854098     -0.708016992      -0.00000000       57.2079277       2.11096382    
   0.00000000       0.00000000       0.00000000       57.2079277       2.11096382    
  -1.72007501     -0.818759024      -0.00000000       57.2079277       2.11096382    
   0.00000000       0.00000000       0.00000000       57.6492310       2.10932112    
  -1.76854098     -0.708016992      -0.00000000       57.6492310       2.10932112    
  -1.79011405     -0.651548028      -0.00000000       57.6492310       2.10932112    
  -1.80988598     -0.594424009      -0.00000000       57.6492310       2.10932112    
  -1.69323206     -0.872922003      -0.00000000       56.6210327       2.11313796    
  -1.72007501     -0.818759024      -0.00000000       56.6210327       2.11313796    
   0.00000000       0.00000000       0.00000000       56.6210327       2.11313796    
  -1.66468298     -0.926204979      -0.00000000       56.6210327       2.11313796    
  -1.56910396      -1.08024895      -0.00000000       54.9634857       2.11908770    
  -1.60258806      -1.02992105      -0.00000000       54.9634857       2.11908770    
   0.00000000       0.00000000       0.00000000       54.9634857       2.11908770    
  -1.53403997      -1.12949002      -0.00000000       54.9634857       2.11908770    
   0.00000000       0.00000000       0.00000000       55.8676720       2.11587644    
  -1.60258806      -1.02992105      -0.00000000       55.8676720       2.11587644    
  -1.63445795     -0.978555024      -0.00000000       55.8676720       2.11587644    
  -1.66468298     -0.926204979      -0.00000000       55.8676720       2.11587644    
  -1.49743104      -1.17759299      -0.00000000       53.9385376       2.12261438    
  -1.53403997      -1.12949002      -0.00000000       53.9385376       2.12261438    
   0.00000000       0.00000000       0.00000000       53.9385376       2.12261438    
  -1.45931494      -1.22450995      -0.00000000       53.9385376       2.12261438    
  -1.33631003      -1.35768199      -0.00000000       52.4026031       2.12751794    
  -1.37871301      -1.31459999      -0.00000000       52.4026031       2.12751794    
   0.00000000       0.00000000       0.00000000       52.4026031       2.12751794    
  -1.29255998      -1.39939702      -0.00000000       52.4026031       2.12751794    
   0.00000000       0.00000000       0.00000000       52.9279518       2.12591958    
  -1.37871301      -1.31459999      -0.00000000       52.9279518       2.12591958    
  -1.41972899      -1.27019501      -0.00000000       52.9279518       2.12591958    
  -1.45931494      -1.22450995      -0.00000000       52.9279518       2.12591958    
  -1.24750996      -1.43970299      -0.00000000       52.9549179       2.12567163    
  -1.29255998      -1.39939702      -0.00000000       52.9549179       2.12567163    
   0.00000000       0.00000000       0.00000000       52.9549179       2.12567163    
  -1.20120299      -1.47855902      -0.00000000       52.9549179       2.12567163    
  -1.05521798      -1.58604598      -0.00000000       55.0525780       2.11850739    
  -1.10500801      -1.55176699      -0.00000000       55.0525780       2.11850739    
   0.00000000       0.00000000       0.00000000       55.0525780       2.11850739    
  -1.00436401      -1.61872697      -0.00000000       55.0525780       2.11850739    
   0.00000000       0.00000000       0.00000000       54.0066605       2.12213349    
  -1.10500801      -1.55176699      -0.00000000       54.0066605       2.12213349    
  -1.15368605      -1.51592600      -0.00000000       54.0066605       2.12213349    
  -1.20120299      -1.47855902      -0.00000000       54.0066605       2.12213349    
 -0.952499986      -1.64977801      -0.00000000       55.9609489       2.11529708    
  -1.00436401      -1.61872697      -0.00000000       55.9609489       2.11529708    
   0.00000000       0.00000000       0.00000000       55.9609489       2.11529708    
 -0.899676025      -1.67916906      -0.00000000       55.9609489       2.11529708    
 -0.735987008      -1.75708497      -0.00000000       57.2726974       2.11056590    
 -0.791365981      -1.73284900      -0.00000000       57.2726974       2.11056590    
   0.00000000       0.00000000       0.00000000       57.2726974       2.11056590    
 -0.679867983      -1.77955198      -0.00000000       57.2726974       2.11056590    
   0.00000000       0.00000000       0.00000000       56.7048416       2.11262250    
 -0.791365981      -1.73284900      -0.00000000       56.7048416       2.11262250    
 -0.845947027      -1.70686805      -0.00000000       56.7048416       2.11262250    
 -0.899676025      -1.67916906      -0.00000000       56.7048416       2.11262250    
 -0.623063982      -1.80022705      -0.00000000       57.6857185       2.10907865    
 -0.679867983      -1.77955198      -0.00000000       57.6857185       2.10907865    
   0.00000000       0.00000000       0.00000000       57.6857185       2.10907865    
 -0.565632999      -1.81908906      -0.00000000       57.6857185       2.10907865    
 -0.390157014      -1.86461902      -0.00000000       58.1709671       2.10734415    
 -0.449120998      -1.85130095      -0.00000000       58.1709671       2.10734415    
   0.00000000       0.00000000       0.00000000       58.1709671       2.10734415    
 -0.330799997      -1.87605906      -0.00000000       58.1709671       2.10734415    
   0.00000000       0.00000000       0.00000000       57.9746094       2.10803819    
 -0.449120998      -1.85130095      -0.00000000       57.9746094       2.10803819    
 -0.507632971      -1.83611906      -0.00000000       57.9746094       2.10803819    
 -0.565632999      -1.81908906      -0.00000000       57.9746094       2.10803819    
 -0.271109998      -1.88560998      -0.00000000       58.2967911       2.10691166    
 -0.330799997      -1.87605906      -0.00000000       58.2967911       2.10691166    
   0.00000000       0.00000000       0.00000000       58.2967911       2.10691166    
 -0.211146995      -1.89326203      -0.00000000       58.2967911       2.10691166    
  -3.02249994E-02  -1.90476000      -0.00000000       58.4019089       2.10657406    
  -9.06440020E-02  -1.90284204      -0.00000000       58.4019089       2.10657406    
   0.00000000       0.00000000       0.00000000       58.4019089       2.10657406    
   3.02249994E-02  -1.90476000      -0.00000000       58.4019089       2.10657406    
   0.00000000       0.00000000       0.00000000       58.3685951       2.10667658    
  -9.06440020E-02  -1.90284204      -0.00000000       58.3685951       2.10667658    
 -0.150970995      -1.89900804      -0.00000000       58.3685951       2.10667658    
 -0.211146995      -1.89326203      -0.00000000       58.3685951       2.10667658    
   9.06440020E-02  -1.90284204      -0.00000000       58.4022369       2.10657907    
   3.02249994E-02  -1.90476000      -0.00000000       58.4022369       2.10657907    
   0.00000000       0.00000000       0.00000000       58.4022369       2.10657907    
  0.150970995      -1.89900804      -0.00000000       58.4022369       2.10657907    
  0.330799997      -1.87605906      -0.00000000       58.2842102       2.10698175    
  0.271109998      -1.88560998      -0.00000000       58.2842102       2.10698175    
   0.00000000       0.00000000       0.00000000       58.2842102       2.10698175    
  0.390157014      -1.86461902      -0.00000000       58.2842102       2.10698175    
   0.00000000       0.00000000       0.00000000       58.3645554       2.10670519    
  0.271109998      -1.88560998      -0.00000000       58.3645554       2.10670519    
  0.211146995      -1.89326203      -0.00000000       58.3645554       2.10670519    
  0.150970995      -1.89900804      -0.00000000       58.3645554       2.10670519    
  0.449120998      -1.85130095      -0.00000000       58.1437187       2.10748434    
  0.390157014      -1.86461902      -0.00000000       58.1437187       2.10748434    
   0.00000000       0.00000000       0.00000000       58.1437187       2.10748434    
  0.507632971      -1.83611906      -0.00000000       58.1437187       2.10748434    
  0.679867983      -1.77955198      -0.00000000       57.6170120       2.10942650    
  0.623063982      -1.80022705      -0.00000000       57.6170120       2.10942650    
   0.00000000       0.00000000       0.00000000       57.6170120       2.10942650    
  0.735987008      -1.75708497      -0.00000000       57.6170120       2.10942650    
   0.00000000       0.00000000       0.00000000       57.9301300       2.10827136    
  0.623063982      -1.80022705      -0.00000000       57.9301300       2.10827136    
  0.565632999      -1.81908906      -0.00000000       57.9301300       2.10827136    
  0.507632971      -1.83611906      -0.00000000       57.9301300       2.10827136    
  0.791365981      -1.73284900      -0.00000000       57.1726227       2.11109447    
  0.735987008      -1.75708497      -0.00000000       57.1726227       2.11109447    
   0.00000000       0.00000000       0.00000000       57.1726227       2.11109447    
  0.845947027      -1.70686805      -0.00000000       57.1726227       2.11109447    
   1.00436401      -1.61872697      -0.00000000       55.8245926       2.11604166    
  0.952499986      -1.64977801      -0.00000000       55.8245926       2.11604166    
   0.00000000       0.00000000       0.00000000       55.8245926       2.11604166    
   1.05521798      -1.58604598      -0.00000000       55.8245926       2.11604166    
   0.00000000       0.00000000       0.00000000       56.5816574       2.11328411    
  0.952499986      -1.64977801      -0.00000000       56.5816574       2.11328411    
  0.899676025      -1.67916906      -0.00000000       56.5816574       2.11328411    
  0.845947027      -1.70686805      -0.00000000       56.5816574       2.11328411    
   1.10500801      -1.55176699      -0.00000000       54.9163589       2.11928391    
   1.05521798      -1.58604598      -0.00000000       54.9163589       2.11928391    
   0.00000000       0.00000000       0.00000000       54.9163589       2.11928391    
   1.15368605      -1.51592600      -0.00000000       54.9163589       2.11928391    
   1.29255998      -1.39939702      -0.00000000       52.8697662       2.12619615    
   1.24750996      -1.43970299      -0.00000000       52.8697662       2.12619615    
   0.00000000       0.00000000       0.00000000       52.8697662       2.12619615    
   1.33631003      -1.35768199      -0.00000000       52.8697662       2.12619615    
   0.00000000       0.00000000       0.00000000       53.8870430       2.12285089    
   1.24750996      -1.43970299      -0.00000000       53.8870430       2.12285089    
   1.20120299      -1.47855902      -0.00000000       53.8870430       2.12285089    