 VARIABLES="X" "Y" "Z" "abs(p) (Pa)" "angle(p) (rad)"
ZONE N=    802,E =     800, F=FEPOINT, ET=QUADRILATERAL
   1.90499997       0.00000000      -0.00000000       1.08896017       1.52855766    
   1.90404105      -6.04420006E-02  -0.00000000       1.08896017       1.52855766    
   0.00000000       0.00000000       0.00000000       1.08896017       1.52855766    
   1.90404105       6.04420006E-02  -0.00000000       1.08896017       1.52855766    
   1.88967395      0.241159007      -0.00000000       58.7662163       1.57651091    
   1.89637399      0.181081995      -0.00000000       58.7662163       1.57651091    
   0.00000000       0.00000000       0.00000000       58.7662163       1.57651091    
   1.88107097      0.300992996      -0.00000000       58.7662163       1.57651091    
   0.00000000       0.00000000       0.00000000       29.8653088       1.57569587    
   1.89637399      0.181081995      -0.00000000       29.8653088       1.57569587    
   1.90116501      0.120823003      -0.00000000       29.8653088       1.57569587    
   1.90404105       6.04420006E-02  -0.00000000       29.8653088       1.57569587    
   1.87057400      0.360523999      -0.00000000       88.2480774       1.57664275    
   1.88107097      0.300992996      -0.00000000       88.2480774       1.57664275    
   0.00000000       0.00000000       0.00000000       88.2480774       1.57664275    
   1.85819399      0.419692010      -0.00000000       88.2480774       1.57664275    
   1.80988598      0.594424009      -0.00000000       149.703140       1.57634270    
   1.82783401      0.536701024      -0.00000000       149.703140       1.57634270    
   0.00000000       0.00000000       0.00000000       149.703140       1.57634270    
   1.79011405      0.651548028      -0.00000000       149.703140       1.57634270    
   0.00000000       0.00000000       0.00000000       118.464989       1.57655764    
   1.82783401      0.536701024      -0.00000000       118.464989       1.57655764    
   1.84394205      0.478437006      -0.00000000       118.464989       1.57655764    
   1.85819399      0.419692010      -0.00000000       118.464989       1.57655764    
   1.76854098      0.708016992      -0.00000000       182.432846       1.57600558    
   1.79011405      0.651548028      -0.00000000       182.432846       1.57600558    
   0.00000000       0.00000000       0.00000000       182.432846       1.57600558    
   1.74518704      0.763773024      -0.00000000       182.432846       1.57600558    
   1.66468298      0.926204979      -0.00000000       252.456421       1.57511497    
   1.69323206      0.872922003      -0.00000000       252.456421       1.57511497    
   0.00000000       0.00000000       0.00000000       252.456421       1.57511497    
   1.63445795      0.978555024      -0.00000000       252.456421       1.57511497    
   0.00000000       0.00000000       0.00000000       216.644180       1.57559383    
   1.69323206      0.872922003      -0.00000000       216.644180       1.57559383    
   1.72007501      0.818759024      -0.00000000       216.644180       1.57559383    
   1.74518704      0.763773024      -0.00000000       216.644180       1.57559383    
   1.60258806       1.02992105      -0.00000000       289.379944       1.57461667    
   1.63445795      0.978555024      -0.00000000       289.379944       1.57461667    
   0.00000000       0.00000000       0.00000000       289.379944       1.57461667    
   1.56910396       1.08024895      -0.00000000       289.379944       1.57461667    
   1.45931494       1.22450995      -0.00000000       362.093689       1.57374287    
   1.49743104       1.17759299      -0.00000000       362.093689       1.57374287    
   0.00000000       0.00000000       0.00000000       362.093689       1.57374287    
   1.41972899       1.27019501      -0.00000000       362.093689       1.57374287    
   0.00000000       0.00000000       0.00000000       326.705139       1.57412839    
   1.49743104       1.17759299      -0.00000000       326.705139       1.57412839    
   1.53403997       1.12949002      -0.00000000       326.705139       1.57412839    
   1.56910396       1.08024895      -0.00000000       326.705139       1.57412839    
   1.37871301       1.31459999      -0.00000000       388.120667       1.57374799    
   1.41972899       1.27019501      -0.00000000       388.120667       1.57374799    
   0.00000000       0.00000000       0.00000000       388.120667       1.57374799    
   1.33631003       1.35768199      -0.00000000       388.120667       1.57374799    
   1.20120299       1.47855902      -0.00000000       392.649780       1.57560587    
   1.24750996       1.43970299      -0.00000000       392.649780       1.57560587    
   0.00000000       0.00000000       0.00000000       392.649780       1.57560587    
   1.15368605       1.51592600      -0.00000000       392.649780       1.57560587    
   0.00000000       0.00000000       0.00000000       395.294891       1.57450116    
   1.24750996       1.43970299      -0.00000000       395.294891       1.57450116    
   1.29255998       1.39939702      -0.00000000       395.294891       1.57450116    
   1.33631003       1.35768199      -0.00000000       395.294891       1.57450116    
   1.10500801       1.55176699      -0.00000000       388.355743       1.57671630    
   1.15368605       1.51592600      -0.00000000       388.355743       1.57671630    
   0.00000000       0.00000000       0.00000000       388.355743       1.57671630    
   1.05521798       1.58604598      -0.00000000       388.355743       1.57671630    
  0.899676025       1.67916906      -0.00000000       382.033936       1.57860744    
  0.952499986       1.64977801      -0.00000000       382.033936       1.57860744    
   0.00000000       0.00000000       0.00000000       382.033936       1.57860744    
  0.845947027       1.70686805      -0.00000000       382.033936       1.57860744    
   0.00000000       0.00000000       0.00000000       384.618042       1.57772911    
  0.952499986       1.64977801      -0.00000000       384.618042       1.57772911    
   1.00436401       1.61872697      -0.00000000       384.618042       1.57772911    
   1.05521798       1.58604598      -0.00000000       384.618042       1.57772911    
  0.791365981       1.73284900      -0.00000000       380.979279       1.57932353    
  0.845947027       1.70686805      -0.00000000       380.979279       1.57932353    
   0.00000000       0.00000000       0.00000000       380.979279       1.57932353    
  0.735987008       1.75708497      -0.00000000       380.979279       1.57932353    
  0.565632999       1.81908906      -0.00000000       382.641571       1.58028793    
  0.623063982       1.80022705      -0.00000000       382.641571       1.58028793    
   0.00000000       0.00000000       0.00000000       382.641571       1.58028793    
  0.507632971       1.83611906      -0.00000000       382.641571       1.58028793    
   0.00000000       0.00000000       0.00000000       381.332245       1.57987714    
  0.623063982       1.80022705      -0.00000000       381.332245       1.57987714    
  0.679867983       1.77955198      -0.00000000       381.332245       1.57987714    
  0.735987008       1.75708497      -0.00000000       381.332245       1.57987714    
  0.449120998       1.85130095      -0.00000000       384.351959       1.58058238    
  0.507632971       1.83611906      -0.00000000       384.351959       1.58058238    
   0.00000000       0.00000000       0.00000000       384.351959       1.58058238    
  0.390157014       1.86461902      -0.00000000       384.351959       1.58058238    
  0.211146995       1.89326203      -0.00000000       387.802338       1.58089590    
  0.271109998       1.88560998      -0.00000000       387.802338       1.58089590    
   0.00000000       0.00000000       0.00000000       387.802338       1.58089590    
  0.150970995       1.89900804      -0.00000000       387.802338       1.58089590    
   0.00000000       0.00000000       0.00000000       386.184570       1.58078027    
  0.271109998       1.88560998      -0.00000000       386.184570       1.58078027    
  0.330799997       1.87605906      -0.00000000       386.184570       1.58078027    
  0.390157014       1.86461902      -0.00000000       386.184570       1.58078027    
   9.06440020E-02   1.90284204      -0.00000000       388.935760       1.58094716    
  0.150970995       1.89900804      -0.00000000       388.935760       1.58094716    
   0.00000000       0.00000000       0.00000000       388.935760       1.58094716    
   3.02249994E-02   1.90476000      -0.00000000       388.935760       1.58094716    
 -0.150970995       1.89900804      -0.00000000       389.436127       1.58086908    
  -9.06440020E-02   1.90284204      -0.00000000       389.436127       1.58086908    
   0.00000000       0.00000000       0.00000000       389.436127       1.58086908    
 -0.211146995       1.89326203      -0.00000000       389.436127       1.58086908    
   0.00000000       0.00000000       0.00000000       389.449738       1.58093965    
  -9.06440020E-02   1.90284204      -0.00000000       389.449738       1.58093965    
  -3.02249994E-02   1.90476000      -0.00000000       389.449738       1.58093965    
   3.02249994E-02   1.90476000      -0.00000000       389.449738       1.58093965    
 -0.271109998       1.88560998      -0.00000000       388.984528       1.58073270    
 -0.211146995       1.89326203      -0.00000000       388.984528       1.58073270    
   0.00000000       0.00000000       0.00000000       388.984528       1.58073270    
 -0.330799997       1.87605906      -0.00000000       388.984528       1.58073270    
 -0.507632971       1.83611906      -0.00000000       388.174744       1.58018565    
 -0.449120998       1.85130095      -0.00000000       388.174744       1.58018565    
   0.00000000       0.00000000       0.00000000       388.174744       1.58018565    
 -0.565632999       1.81908906      -0.00000000       388.174744       1.58018565    
   0.00000000       0.00000000       0.00000000       388.497864       1.58050919    
 -0.449120998       1.85130095      -0.00000000       388.497864       1.58050919    
 -0.390157014       1.86461902      -0.00000000       388.497864       1.58050919    
 -0.330799997       1.87605906      -0.00000000       388.497864       1.58050919    
 -0.623063982       1.80022705      -0.00000000       388.427643       1.57974362    
 -0.565632999       1.81908906      -0.00000000       388.427643       1.57974362    
   0.00000000       0.00000000       0.00000000       388.427643       1.57974362    
 -0.679867983       1.77955198      -0.00000000       388.427643       1.57974362    
 -0.845947027       1.70686805      -0.00000000       392.539337       1.57842124    
 -0.791365981       1.73284900      -0.00000000       392.539337       1.57842124    
   0.00000000       0.00000000       0.00000000       392.539337       1.57842124    
 -0.899676025       1.67916906      -0.00000000       392.539337       1.57842124    
   0.00000000       0.00000000       0.00000000       389.874146       1.57915390    
 -0.791365981       1.73284900      -0.00000000       389.874146       1.57915390    
 -0.735987008       1.75708497      -0.00000000       389.874146       1.57915390    
 -0.679867983       1.77955198      -0.00000000       389.874146       1.57915390    
 -0.952499986       1.64977801      -0.00000000       396.487061       1.57754564    
 -0.899676025       1.67916906      -0.00000000       396.487061       1.57754564    
   0.00000000       0.00000000       0.00000000       396.487061       1.57754564    
  -1.00436401       1.61872697      -0.00000000       396.487061       1.57754564    
  -1.15368605       1.51592600      -0.00000000       406.055878       1.57549512    
  -1.10500801       1.55176699      -0.00000000       406.055878       1.57549512    
   0.00000000       0.00000000       0.00000000       406.055878       1.57549512    
  -1.20120299       1.47855902      -0.00000000       406.055878       1.57549512    
   0.00000000       0.00000000       0.00000000       401.221802       1.57655895    
  -1.10500801       1.55176699      -0.00000000       401.221802       1.57655895    
  -1.05521798       1.58604598      -0.00000000       401.221802       1.57655895    
  -1.00436401       1.61872697      -0.00000000       401.221802       1.57655895    
  -1.24750996       1.43970299      -0.00000000       408.618988       1.57445431    
  -1.20120299       1.47855902      -0.00000000       408.618988       1.57445431    
   0.00000000       0.00000000       0.00000000       408.618988       1.57445431    
  -1.29255998       1.39939702      -0.00000000       408.618988       1.57445431    
  -1.41972899       1.27019501      -0.00000000       374.323151       1.57378554    
  -1.37871301       1.31459999      -0.00000000       374.323151       1.57378554    
   0.00000000       0.00000000       0.00000000       374.323151       1.57378554    
  -1.45931494       1.22450995      -0.00000000       374.323151       1.57378554    
   0.00000000       0.00000000       0.00000000       401.245911       1.57374752    
  -1.37871301       1.31459999      -0.00000000       401.245911       1.57374752    
  -1.33631003       1.35768199      -0.00000000       401.245911       1.57374752    
  -1.29255998       1.39939702      -0.00000000       401.245911       1.57374752    
  -1.49743104       1.17759299      -0.00000000       337.471252       1.57424045    
  -1.45931494       1.22450995      -0.00000000       337.471252       1.57424045    
   0.00000000       0.00000000       0.00000000       337.471252       1.57424045    
  -1.53403997       1.12949002      -0.00000000       337.471252       1.57424045    
  -1.63445795      0.978555024      -0.00000000       261.775604       1.57535577    
  -1.60258806       1.02992105      -0.00000000       261.775604       1.57535577    
   0.00000000       0.00000000       0.00000000       261.775604       1.57535577    
  -1.66468298      0.926204979      -0.00000000       261.775604       1.57535577    
   0.00000000       0.00000000       0.00000000       299.184967       1.57479489    
  -1.60258806       1.02992105      -0.00000000       299.184967       1.57479489    
  -1.56910396       1.08024895      -0.00000000       299.184967       1.57479489    
  -1.53403997       1.12949002      -0.00000000       299.184967       1.57479489    
  -1.69323206      0.872922003      -0.00000000       225.895233       1.57588744    
  -1.66468298      0.926204979      -0.00000000       225.895233       1.57588744    
   0.00000000       0.00000000       0.00000000       225.895233       1.57588744    
  -1.72007501      0.818759024      -0.00000000       225.895233       1.57588744    
  -1.79011405      0.651548028      -0.00000000       159.811615       1.57670140    
  -1.76854098      0.708016992      -0.00000000       159.811615       1.57670140    
   0.00000000       0.00000000       0.00000000       159.811615       1.57670140    
  -1.80988598      0.594424009      -0.00000000       159.811615       1.57670140    
   0.00000000       0.00000000       0.00000000       191.987534       1.57634020    
  -1.76854098      0.708016992      -0.00000000       191.987534       1.57634020    
  -1.74518704      0.763773024      -0.00000000       191.987534       1.57634020    
  -1.72007501      0.818759024      -0.00000000       191.987534       1.57634020    
  -1.82783401      0.536701024      -0.00000000       129.037292       1.57695818    
  -1.80988598      0.594424009      -0.00000000       129.037292       1.57695818    
   0.00000000       0.00000000       0.00000000       129.037292       1.57695818    
  -1.84394205      0.478437006      -0.00000000       129.037292       1.57695818    
  -1.88107097      0.300992996      -0.00000000       70.0984497       1.57714510    
  -1.87057400      0.360523999      -0.00000000       70.0984497       1.57714510    
   0.00000000       0.00000000       0.00000000       70.0984497       1.57714510    
  -1.88967395      0.241159007      -0.00000000       70.0984497       1.57714510    
   0.00000000       0.00000000       0.00000000       99.2041473       1.57711732    
  -1.87057400      0.360523999      -0.00000000       99.2041473       1.57711732    
  -1.85819399      0.419692010      -0.00000000       99.2041473       1.57711732    
  -1.84394205      0.478437006      -0.00000000       99.2041473       1.57711732    
  -1.89637399      0.181081995      -0.00000000       41.4651451       1.57691407    
  -1.88967395      0.241159007      -0.00000000       41.4651451       1.57691407    
   0.00000000       0.00000000       0.00000000       41.4651451       1.57691407    
  -1.90116501      0.120823003      -0.00000000       41.4651451       1.57691407    
  -1.90404105      -6.04420006E-02  -0.00000000       15.6622782      -1.56206429    
  -1.90499997       0.00000000      -0.00000000       15.6622782      -1.56206429    
   0.00000000       0.00000000       0.00000000       15.6622782      -1.56206429    
  -1.90116501     -0.120823003      -0.00000000       15.6622782      -1.56206429    
   0.00000000       0.00000000       0.00000000       12.9018202       1.57537389    
  -1.90499997       0.00000000      -0.00000000       12.9018202       1.57537389    
  -1.90404105       6.04420006E-02  -0.00000000       12.9018202       1.57537389    
  -1.90116501      0.120823003      -0.00000000       12.9018202       1.57537389    
  -1.89637399     -0.181081995      -0.00000000       44.1829987      -1.56328690    
  -1.90116501     -0.120823003      -0.00000000       44.1829987      -1.56328690    
   0.00000000       0.00000000       0.00000000       44.1829987      -1.56328690    
  -1.88967395     -0.241159007      -0.00000000       44.1829987      -1.56328690    
  -1.85819399     -0.419692010      -0.00000000       102.267960      -1.56393611    
  -1.87057400     -0.360523999      -0.00000000       102.267960      -1.56393611    
   0.00000000       0.00000000       0.00000000       102.267960      -1.56393611    
  -1.84394205     -0.478437006      -0.00000000       102.267960      -1.56393611    
   0.00000000       0.00000000       0.00000000       72.9190521      -1.56363404    
  -1.87057400     -0.360523999      -0.00000000       72.9190521      -1.56363404    
  -1.88107097     -0.300992996      -0.00000000       72.9190521      -1.56363404    
  -1.88967395     -0.241159007      -0.00000000       72.9190521      -1.56363404    
  -1.82783401     -0.536701024      -0.00000000       132.322052      -1.56424332    
  -1.84394205     -0.478437006      -0.00000000       132.322052      -1.56424332    
   0.00000000       0.00000000       0.00000000       132.322052      -1.56424332    
  -1.80988598     -0.594424009      -0.00000000       132.322052      -1.56424332    
  -1.74518704     -0.763773024      -0.00000000       195.905930      -1.56503475    
  -1.76854098     -0.708016992      -0.00000000       195.905930      -1.56503475    
   0.00000000       0.00000000       0.00000000       195.905930      -1.56503475    
  -1.72007501     -0.818759024      -0.00000000       195.905930      -1.56503475    
   0.00000000       0.00000000       0.00000000       163.373093      -1.56460083    
  -1.76854098     -0.708016992      -0.00000000       163.373093      -1.56460083    
  -1.79011405     -0.651548028      -0.00000000       163.373093      -1.56460083    
  -1.80988598     -0.594424009      -0.00000000       163.373093      -1.56460083    
  -1.69323206     -0.872922003      -0.00000000       230.019089      -1.56553078    
  -1.72007501     -0.818759024      -0.00000000       230.019089      -1.56553078    
   0.00000000       0.00000000       0.00000000       230.019089      -1.56553078    
  -1.66468298     -0.926204979      -0.00000000       230.019089      -1.56553078    
  -1.56910396      -1.08024895      -0.00000000       302.821472      -1.56664395    
  -1.60258806      -1.02992105      -0.00000000       302.821472      -1.56664395    
   0.00000000       0.00000000       0.00000000       302.821472      -1.56664395    
  -1.53403997      -1.12949002      -0.00000000       302.821472      -1.56664395    
   0.00000000       0.00000000       0.00000000       265.836670      -1.56608224    
  -1.60258806      -1.02992105      -0.00000000       265.836670      -1.56608224    
  -1.63445795     -0.978555024      -0.00000000       265.836670      -1.56608224    
  -1.66468298     -0.926204979      -0.00000000       265.836670      -1.56608224    
  -1.49743104      -1.17759299      -0.00000000       340.249451      -1.56718779    
  -1.53403997      -1.12949002      -0.00000000       340.249451      -1.56718779    
   0.00000000       0.00000000       0.00000000       340.249451      -1.56718779    
  -1.45931494      -1.22450995      -0.00000000       340.249451      -1.56718779    
  -1.33631003      -1.35768199      -0.00000000       401.338989      -1.56764603    
  -1.37871301      -1.31459999      -0.00000000       401.338989      -1.56764603    
   0.00000000       0.00000000       0.00000000       401.338989      -1.56764603    
  -1.29255998      -1.39939702      -0.00000000       401.338989      -1.56764603    
   0.00000000       0.00000000       0.00000000       375.692627      -1.56762016    
  -1.37871301      -1.31459999      -0.00000000       375.692627      -1.56762016    
  -1.41972899      -1.27019501      -0.00000000       375.692627      -1.56762016    
  -1.45931494      -1.22450995      -0.00000000       375.692627      -1.56762016    
  -1.24750996      -1.43970299      -0.00000000       407.528992      -1.56691122    
  -1.29255998      -1.39939702      -0.00000000       407.528992      -1.56691122    
   0.00000000       0.00000000       0.00000000       407.528992      -1.56691122    
  -1.20120299      -1.47855902      -0.00000000       407.528992      -1.56691122    
  -1.05521798      -1.58604598      -0.00000000       398.276520      -1.56472051    
  -1.10500801      -1.55176699      -0.00000000       398.276520      -1.56472051    
   0.00000000       0.00000000       0.00000000       398.276520      -1.56472051    
  -1.00436401      -1.61872697      -0.00000000       398.276520      -1.56472051    
   0.00000000       0.00000000       0.00000000       403.739075      -1.56582189    
  -1.10500801      -1.55176699      -0.00000000       403.739075      -1.56582189    
  -1.15368605      -1.51592600      -0.00000000       403.739075      -1.56582189    
  -1.20120299      -1.47855902      -0.00000000       403.739075      -1.56582189    
 -0.952499986      -1.64977801      -0.00000000       393.380341      -1.56371164    
  -1.00436401      -1.61872697      -0.00000000       393.380341      -1.56371164    
   0.00000000       0.00000000       0.00000000       393.380341      -1.56371164    
 -0.899676025      -1.67916906      -0.00000000       393.380341      -1.56371164    
 -0.735987008      -1.75708497      -0.00000000       387.524200      -1.56211221    
 -0.791365981      -1.73284900      -0.00000000       387.524200      -1.56211221    
   0.00000000       0.00000000       0.00000000       387.524200      -1.56211221    
 -0.679867983      -1.77955198      -0.00000000       387.524200      -1.56211221    
   0.00000000       0.00000000       0.00000000       389.664764      -1.56283188    
 -0.791365981      -1.73284900      -0.00000000       389.664764      -1.56283188    
 -0.845947027      -1.70686805      -0.00000000       389.664764      -1.56283188    
 -0.899676025      -1.67916906      -0.00000000       389.664764      -1.56283188    
 -0.623063982      -1.80022705      -0.00000000       386.838043      -1.56155109    
 -0.679867983      -1.77955198      -0.00000000       386.838043      -1.56155109    
   0.00000000       0.00000000       0.00000000       386.838043      -1.56155109    
 -0.565632999      -1.81908906      -0.00000000       386.838043      -1.56155109    
 -0.390157014      -1.86461902      -0.00000000       387.887512      -1.56083012    
 -0.449120998      -1.85130095      -0.00000000       387.887512      -1.56083012    
   0.00000000       0.00000000       0.00000000       387.887512      -1.56083012    
 -0.330799997      -1.87605906      -0.00000000       387.887512      -1.56083012    
   0.00000000       0.00000000       0.00000000       387.147034      -1.56113327    
 -0.449120998      -1.85130095      -0.00000000       387.147034      -1.56113327    
 -0.507632971      -1.83611906      -0.00000000       387.147034      -1.56113327    
 -0.565632999      -1.81908906      -0.00000000       387.147034      -1.56113327    
 -0.271109998      -1.88560998      -0.00000000       388.768280      -1.56062472    
 -0.330799997      -1.87605906      -0.00000000       388.768280      -1.56062472    
   0.00000000       0.00000000       0.00000000       388.768280      -1.56062472    
 -0.211146995      -1.89326203      -0.00000000       388.768280      -1.56062472    
  -3.02249994E-02  -1.90476000      -0.00000000       389.611053      -1.56043673    
  -9.06440020E-02  -1.90284204      -0.00000000       389.611053      -1.56043673    
   0.00000000       0.00000000       0.00000000       389.611053      -1.56043673    
   3.02249994E-02  -1.90476000      -0.00000000       389.611053      -1.56043673    
   0.00000000       0.00000000       0.00000000       389.434418      -1.56049919    
  -9.06440020E-02  -1.90284204      -0.00000000       389.434418      -1.56049919    
 -0.150970995      -1.89900804      -0.00000000       389.434418      -1.56049919    
 -0.211146995      -1.89326203      -0.00000000       389.434418      -1.56049919    
   9.06440020E-02  -1.90284204      -0.00000000       389.165527      -1.56043434    
   3.02249994E-02  -1.90476000      -0.00000000       389.165527      -1.56043434    
   0.00000000       0.00000000       0.00000000       389.165527      -1.56043434    
  0.150970995      -1.89900804      -0.00000000       389.165527      -1.56043434    
  0.330799997      -1.87605906      -0.00000000       386.815399      -1.56061971    
  0.271109998      -1.88560998      -0.00000000       386.815399      -1.56061971    
   0.00000000       0.00000000       0.00000000       386.815399      -1.56061971    
  0.390157014      -1.86461902      -0.00000000       386.815399      -1.56061971    
   0.00000000       0.00000000       0.00000000       388.200836      -1.56049299    
  0.271109998      -1.88560998      -0.00000000       388.200836      -1.56049299    
  0.211146995      -1.89326203      -0.00000000       388.200836      -1.56049299    
  0.150970995      -1.89900804      -0.00000000       388.200836      -1.56049299    
  0.449120998      -1.85130095      -0.00000000       385.382263      -1.56083512    
  0.390157014      -1.86461902      -0.00000000       385.382263      -1.56083512    
   0.00000000       0.00000000       0.00000000       385.382263      -1.56083512    
  0.507632971      -1.83611906      -0.00000000       385.382263      -1.56083512    
  0.679867983      -1.77955198      -0.00000000       383.356781      -1.56158447    
  0.623063982      -1.80022705      -0.00000000       383.356781      -1.56158447    
   0.00000000       0.00000000       0.00000000       383.356781      -1.56158447    
  0.735987008      -1.75708497      -0.00000000       383.356781      -1.56158447    
   0.00000000       0.00000000       0.00000000       384.094696      -1.56114924    
  0.623063982      -1.80022705      -0.00000000       384.094696      -1.56114924    
  0.565632999      -1.81908906      -0.00000000       384.094696      -1.56114924    
  0.507632971      -1.83611906      -0.00000000       384.094696      -1.56114924    
  0.791365981      -1.73284900      -0.00000000       383.774231      -1.56216955    
  0.735987008      -1.75708497      -0.00000000       383.774231      -1.56216955    
   0.00000000       0.00000000       0.00000000       383.774231      -1.56216955    
  0.845947027      -1.70686805      -0.00000000       383.774231      -1.56216955    
   1.00436401      -1.61872697      -0.00000000       388.205627      -1.56377947    
  0.952499986      -1.64977801      -0.00000000       388.205627      -1.56377947    
   0.00000000       0.00000000       0.00000000       388.205627      -1.56377947    
   1.05521798      -1.58604598      -0.00000000       388.205627      -1.56377947    
   0.00000000       0.00000000       0.00000000       385.365051      -1.56290102    
  0.952499986      -1.64977801      -0.00000000       385.365051      -1.56290102    
  0.899676025      -1.67916906      -0.00000000       385.365051      -1.56290102    
  0.845947027      -1.70686805      -0.00000000       385.365051      -1.56290102    
   1.10500801      -1.55176699      -0.00000000       391.816132      -1.56477630    
   1.05521798      -1.58604598      -0.00000000       391.816132      -1.56477630    
   0.00000000       0.00000000       0.00000000       391.816132      -1.56477630    
   1.15368605      -1.51592600      -0.00000000       391.816132      -1.56477630    
   1.29255998      -1.39939702      -0.00000000       396.986298      -1.56691158    
   1.24750996      -1.43970299      -0.00000000       396.986298      -1.56691158    
   0.00000000       0.00000000       0.00000000       396.986298      -1.56691158    
   1.33631003      -1.35768199      -0.00000000       396.986298      -1.56691158    
   0.00000000       0.00000000       0.00000000       395.527863      -1.56585479    
   1.24750996      -1.43970299      -0.00000000       395.527863      -1.56585479    
   1.20120299      -1.47855902      -0.00000000       395.527863      -1.56585479    