 VARIABLES="X" "Y" "Z" "abs(p) (Pa)" "angle(p) (rad)"
ZONE N=    802,E =     800, F=FEPOINT, ET=QUADRILATERAL
   1.90499997       0.00000000      -0.00000000       86.1529846      -1.66107607    
   1.90404105      -6.04420006E-02  -0.00000000       86.1529846      -1.66107607    
   0.00000000       0.00000000       0.00000000       86.1529846      -1.66107607    
   1.90404105       6.04420006E-02  -0.00000000       86.1529846      -1.66107607    
   1.88967395      0.241159007      -0.00000000       86.0204315      -1.66116929    
   1.89637399      0.181081995      -0.00000000       86.0204315      -1.66116929    
   0.00000000       0.00000000       0.00000000       86.0204315      -1.66116929    
   1.88107097      0.300992996      -0.00000000       86.0204315      -1.66116929    
   0.00000000       0.00000000       0.00000000       86.1292114      -1.66108191    
   1.89637399      0.181081995      -0.00000000       86.1292114      -1.66108191    
   1.90116501      0.120823003      -0.00000000       86.1292114      -1.66108191    
   1.90404105       6.04420006E-02  -0.00000000       86.1292114      -1.66108191    
   1.87057400      0.360523999      -0.00000000       85.8675766      -1.66126430    
   1.88107097      0.300992996      -0.00000000       85.8675766      -1.66126430    
   0.00000000       0.00000000       0.00000000       85.8675766      -1.66126430    
   1.85819399      0.419692010      -0.00000000       85.8675766      -1.66126430    
   1.80988598      0.594424009      -0.00000000       85.7732086      -1.66086674    
   1.82783401      0.536701024      -0.00000000       85.7732086      -1.66086674    
   0.00000000       0.00000000       0.00000000       85.7732086      -1.66086674    
   1.79011405      0.651548028      -0.00000000       85.7732086      -1.66086674    
   0.00000000       0.00000000       0.00000000       85.7555466      -1.66121662    
   1.82783401      0.536701024      -0.00000000       85.7555466      -1.66121662    
   1.84394205      0.478437006      -0.00000000       85.7555466      -1.66121662    
   1.85819399      0.419692010      -0.00000000       85.7555466      -1.66121662    
   1.76854098      0.708016992      -0.00000000       85.9358139      -1.66018057    
   1.79011405      0.651548028      -0.00000000       85.9358139      -1.66018057    
   0.00000000       0.00000000       0.00000000       85.9358139      -1.66018057    
   1.74518704      0.763773024      -0.00000000       85.9358139      -1.66018057    
   1.66468298      0.926204979      -0.00000000       86.9046936      -1.65742743    
   1.69323206      0.872922003      -0.00000000       86.9046936      -1.65742743    
   0.00000000       0.00000000       0.00000000       86.9046936      -1.65742743    
   1.63445795      0.978555024      -0.00000000       86.9046936      -1.65742743    
   0.00000000       0.00000000       0.00000000       86.3133850      -1.65903294    
   1.69323206      0.872922003      -0.00000000       86.3133850      -1.65903294    
   1.72007501      0.818759024      -0.00000000       86.3133850      -1.65903294    
   1.74518704      0.763773024      -0.00000000       86.3133850      -1.65903294    
   1.60258806       1.02992105      -0.00000000       87.6388779      -1.65548193    
   1.63445795      0.978555024      -0.00000000       87.6388779      -1.65548193    
   0.00000000       0.00000000       0.00000000       87.6388779      -1.65548193    
   1.56910396       1.08024895      -0.00000000       87.6388779      -1.65548193    
   1.45931494       1.22450995      -0.00000000       88.5836182      -1.65212858    
   1.49743104       1.17759299      -0.00000000       88.5836182      -1.65212858    
   0.00000000       0.00000000       0.00000000       88.5836182      -1.65212858    
   1.41972899       1.27019501      -0.00000000       88.5836182      -1.65212858    
   0.00000000       0.00000000       0.00000000       88.3176575      -1.65353084    
   1.49743104       1.17759299      -0.00000000       88.3176575      -1.65353084    
   1.53403997       1.12949002      -0.00000000       88.3176575      -1.65353084    
   1.56910396       1.08024895      -0.00000000       88.3176575      -1.65353084    
   1.37871301       1.31459999      -0.00000000       86.9269791      -1.65369427    
   1.41972899       1.27019501      -0.00000000       86.9269791      -1.65369427    
   0.00000000       0.00000000       0.00000000       86.9269791      -1.65369427    
   1.33631003       1.35768199      -0.00000000       86.9269791      -1.65369427    
   1.20120299       1.47855902      -0.00000000       73.9626846      -1.67563128    
   1.24750996       1.43970299      -0.00000000       73.9626846      -1.67563128    
   0.00000000       0.00000000       0.00000000       73.9626846      -1.67563128    
   1.15368605       1.51592600      -0.00000000       73.9626846      -1.67563128    
   0.00000000       0.00000000       0.00000000       81.4136124      -1.66203320    
   1.24750996       1.43970299      -0.00000000       81.4136124      -1.66203320    
   1.29255998       1.39939702      -0.00000000       81.4136124      -1.66203320    
   1.33631003       1.35768199      -0.00000000       81.4136124      -1.66203320    
   1.10500801       1.55176699      -0.00000000       66.2439499      -1.69280481    
   1.15368605       1.51592600      -0.00000000       66.2439499      -1.69280481    
   0.00000000       0.00000000       0.00000000       66.2439499      -1.69280481    
   1.05521798       1.58604598      -0.00000000       66.2439499      -1.69280481    
  0.899676025       1.67916906      -0.00000000       51.4352303      -1.73912048    
  0.952499986       1.64977801      -0.00000000       51.4352303      -1.73912048    
   0.00000000       0.00000000       0.00000000       51.4352303      -1.73912048    
  0.845947027       1.70686805      -0.00000000       51.4352303      -1.73912048    
   0.00000000       0.00000000       0.00000000       58.6643143      -1.71377742    
  0.952499986       1.64977801      -0.00000000       58.6643143      -1.71377742    
   1.00436401       1.61872697      -0.00000000       58.6643143      -1.71377742    
   1.05521798       1.58604598      -0.00000000       58.6643143      -1.71377742    
  0.791365981       1.73284900      -0.00000000       44.5717659      -1.77034044    
  0.845947027       1.70686805      -0.00000000       44.5717659      -1.77034044    
   0.00000000       0.00000000       0.00000000       44.5717659      -1.77034044    
  0.735987008       1.75708497      -0.00000000       44.5717659      -1.77034044    
  0.565632999       1.81908906      -0.00000000       31.9174900      -1.86170173    
  0.623063982       1.80022705      -0.00000000       31.9174900      -1.86170173    
   0.00000000       0.00000000       0.00000000       31.9174900      -1.86170173    
  0.507632971       1.83611906      -0.00000000       31.9174900      -1.86170173    
   0.00000000       0.00000000       0.00000000       38.0758781      -1.80978942    
  0.623063982       1.80022705      -0.00000000       38.0758781      -1.80978942    
  0.679867983       1.77955198      -0.00000000       38.0758781      -1.80978942    
  0.735987008       1.75708497      -0.00000000       38.0758781      -1.80978942    
  0.449120998       1.85130095      -0.00000000       26.0752182      -1.93393147    
  0.507632971       1.83611906      -0.00000000       26.0752182      -1.93393147    
   0.00000000       0.00000000       0.00000000       26.0752182      -1.93393147    
  0.390157014       1.86461902      -0.00000000       26.0752182      -1.93393147    
  0.211146995       1.89326203      -0.00000000       15.4752378      -2.22299099    
  0.271109998       1.88560998      -0.00000000       15.4752378      -2.22299099    
   0.00000000       0.00000000       0.00000000       15.4752378      -2.22299099    
  0.150970995       1.89900804      -0.00000000       15.4752378      -2.22299099    
   0.00000000       0.00000000       0.00000000       20.5393391      -2.04288197    
  0.271109998       1.88560998      -0.00000000       20.5393391      -2.04288197    
  0.330799997       1.87605906      -0.00000000       20.5393391      -2.04288197    
  0.390157014       1.86461902      -0.00000000       20.5393391      -2.04288197    
   9.06440020E-02   1.90284204      -0.00000000       11.3766813      -2.54630208    
  0.150970995       1.89900804      -0.00000000       11.3766813      -2.54630208    
   0.00000000       0.00000000       0.00000000       11.3766813      -2.54630208    
   3.02249994E-02   1.90476000      -0.00000000       11.3766813      -2.54630208    
 -0.150970995       1.89900804      -0.00000000       10.8731298       2.61622643    
  -9.06440020E-02   1.90284204      -0.00000000       10.8731298       2.61622643    
   0.00000000       0.00000000       0.00000000       10.8731298       2.61622643    
 -0.211146995       1.89326203      -0.00000000       10.8731298       2.61622643    
   0.00000000       0.00000000       0.00000000       9.43724060      -3.09027529    
  -9.06440020E-02   1.90284204      -0.00000000       9.43724060      -3.09027529    
  -3.02249994E-02   1.90476000      -0.00000000       9.43724060      -3.09027529    
   3.02249994E-02   1.90476000      -0.00000000       9.43724060      -3.09027529    
 -0.271109998       1.88560998      -0.00000000       14.7926493       2.25619793    
 -0.211146995       1.89326203      -0.00000000       14.7926493       2.25619793    
   0.00000000       0.00000000       0.00000000       14.7926493       2.25619793    
 -0.330799997       1.87605906      -0.00000000       14.7926493       2.25619793    
 -0.507632971       1.83611906      -0.00000000       25.4724960       1.93997872    
 -0.449120998       1.85130095      -0.00000000       25.4724960       1.93997872    
   0.00000000       0.00000000       0.00000000       25.4724960       1.93997872    
 -0.565632999       1.81908906      -0.00000000       25.4724960       1.93997872    
   0.00000000       0.00000000       0.00000000       19.8388634       2.05829763    
 -0.449120998       1.85130095      -0.00000000       19.8388634       2.05829763    
 -0.390157014       1.86461902      -0.00000000       19.8388634       2.05829763    
 -0.330799997       1.87605906      -0.00000000       19.8388634       2.05829763    
 -0.623063982       1.80022705      -0.00000000       31.5532913       1.86188972    
 -0.565632999       1.81908906      -0.00000000       31.5532913       1.86188972    
   0.00000000       0.00000000       0.00000000       31.5532913       1.86188972    
 -0.679867983       1.77955198      -0.00000000       31.5532913       1.86188972    
 -0.845947027       1.70686805      -0.00000000       44.8147697       1.76557028    
 -0.791365981       1.73284900      -0.00000000       44.8147697       1.76557028    
   0.00000000       0.00000000       0.00000000       44.8147697       1.76557028    
 -0.899676025       1.67916906      -0.00000000       44.8147697       1.76557028    
   0.00000000       0.00000000       0.00000000       37.9975204       1.80678546    
 -0.791365981       1.73284900      -0.00000000       37.9975204       1.80678546    
 -0.735987008       1.75708497      -0.00000000       37.9975204       1.80678546    
 -0.679867983       1.77955198      -0.00000000       37.9975204       1.80678546    
 -0.952499986       1.64977801      -0.00000000       51.9696808       1.73363519    
 -0.899676025       1.67916906      -0.00000000       51.9696808       1.73363519    
   0.00000000       0.00000000       0.00000000       51.9696808       1.73363519    
  -1.00436401       1.61872697      -0.00000000       51.9696808       1.73363519    
  -1.15368605       1.51592600      -0.00000000       66.8135300       1.68847549    
  -1.10500801       1.55176699      -0.00000000       66.8135300       1.68847549    
   0.00000000       0.00000000       0.00000000       66.8135300       1.68847549    
  -1.20120299       1.47855902      -0.00000000       66.8135300       1.68847549    
   0.00000000       0.00000000       0.00000000       59.3753624       1.70839477    
  -1.10500801       1.55176699      -0.00000000       59.3753624       1.70839477    
  -1.05521798       1.58604598      -0.00000000       59.3753624       1.70839477    
  -1.00436401       1.61872697      -0.00000000       59.3753624       1.70839477    
  -1.24750996       1.43970299      -0.00000000       73.9218445       1.67309213    
  -1.20120299       1.47855902      -0.00000000       73.9218445       1.67309213    
   0.00000000       0.00000000       0.00000000       73.9218445       1.67309213    
  -1.29255998       1.39939702      -0.00000000       73.9218445       1.67309213    
  -1.41972899       1.27019501      -0.00000000       80.7691116       1.66203737    
  -1.37871301       1.31459999      -0.00000000       80.7691116       1.66203737    
   0.00000000       0.00000000       0.00000000       80.7691116       1.66203737    
  -1.45931494       1.22450995      -0.00000000       80.7691116       1.66203737    
   0.00000000       0.00000000       0.00000000       79.2057419       1.66370702    
  -1.37871301       1.31459999      -0.00000000       79.2057419       1.66370702    
  -1.33631003       1.35768199      -0.00000000       79.2057419       1.66370702    
  -1.29255998       1.39939702      -0.00000000       79.2057419       1.66370702    
  -1.49743104       1.17759299      -0.00000000       80.4363480       1.66381431    
  -1.45931494       1.22450995      -0.00000000       80.4363480       1.66381431    
   0.00000000       0.00000000       0.00000000       80.4363480       1.66381431    
  -1.53403997       1.12949002      -0.00000000       80.4363480       1.66381431    
  -1.63445795      0.978555024      -0.00000000       79.1711197       1.66812503    
  -1.60258806       1.02992105      -0.00000000       79.1711197       1.66812503    
   0.00000000       0.00000000       0.00000000       79.1711197       1.66812503    
  -1.66468298      0.926204979      -0.00000000       79.1711197       1.66812503    
   0.00000000       0.00000000       0.00000000       79.7795029       1.66607809    
  -1.60258806       1.02992105      -0.00000000       79.7795029       1.66607809    
  -1.56910396       1.08024895      -0.00000000       79.7795029       1.66607809    
  -1.53403997       1.12949002      -0.00000000       79.7795029       1.66607809    
  -1.69323206      0.872922003      -0.00000000       78.8046036       1.66957605    
  -1.66468298      0.926204979      -0.00000000       78.8046036       1.66957605    
   0.00000000       0.00000000       0.00000000       78.8046036       1.66957605    
  -1.72007501      0.818759024      -0.00000000       78.8046036       1.66957605    
  -1.79011405      0.651548028      -0.00000000       78.7219162       1.67083049    
  -1.76854098      0.708016992      -0.00000000       78.7219162       1.67083049    
   0.00000000       0.00000000       0.00000000       78.7219162       1.67083049    
  -1.80988598      0.594424009      -0.00000000       78.7219162       1.67083049    
   0.00000000       0.00000000       0.00000000       78.6592484       1.67046833    
  -1.76854098      0.708016992      -0.00000000       78.6592484       1.67046833    
  -1.74518704      0.763773024      -0.00000000       78.6592484       1.67046833    
  -1.72007501      0.818759024      -0.00000000       78.6592484       1.67046833    
  -1.82783401      0.536701024      -0.00000000       78.9371033       1.67078686    
  -1.80988598      0.594424009      -0.00000000       78.9371033       1.67078686    
   0.00000000       0.00000000       0.00000000       78.9371033       1.67078686    
  -1.84394205      0.478437006      -0.00000000       78.9371033       1.67078686    
  -1.88107097      0.300992996      -0.00000000       79.5267868       1.67012525    
  -1.87057400      0.360523999      -0.00000000       79.5267868       1.67012525    
   0.00000000       0.00000000       0.00000000       79.5267868       1.67012525    
  -1.88967395      0.241159007      -0.00000000       79.5267868       1.67012525    
   0.00000000       0.00000000       0.00000000       79.2313843       1.67049623    
  -1.87057400      0.360523999      -0.00000000       79.2313843       1.67049623    
  -1.85819399      0.419692010      -0.00000000       79.2313843       1.67049623    
  -1.84394205      0.478437006      -0.00000000       79.2313843       1.67049623    
  -1.89637399      0.181081995      -0.00000000       79.7548370       1.66981316    
  -1.88967395      0.241159007      -0.00000000       79.7548370       1.66981316    
   0.00000000       0.00000000       0.00000000       79.7548370       1.66981316    
  -1.90116501      0.120823003      -0.00000000       79.7548370       1.66981316    
  -1.90404105      -6.04420006E-02  -0.00000000       79.9088516       1.66957307    
  -1.90499997       0.00000000      -0.00000000       79.9088516       1.66957307    
   0.00000000       0.00000000       0.00000000       79.9088516       1.66957307    
  -1.90116501     -0.120823003      -0.00000000       79.9088516       1.66957307    
   0.00000000       0.00000000       0.00000000       79.8974228       1.66959882    
  -1.90499997       0.00000000      -0.00000000       79.8974228       1.66959882    
  -1.90404105       6.04420006E-02  -0.00000000       79.8974228       1.66959882    
  -1.90116501      0.120823003      -0.00000000       79.8974228       1.66959882    
  -1.89637399     -0.181081995      -0.00000000       79.8064194       1.66970062    
  -1.90116501     -0.120823003      -0.00000000       79.8064194       1.66970062    
   0.00000000       0.00000000       0.00000000       79.8064194       1.66970062    
  -1.88967395     -0.241159007      -0.00000000       79.8064194       1.66970062    
  -1.85819399     -0.419692010      -0.00000000       79.4097748       1.67011583    
  -1.87057400     -0.360523999      -0.00000000       79.4097748       1.67011583    
   0.00000000       0.00000000       0.00000000       79.4097748       1.67011583    
  -1.84394205     -0.478437006      -0.00000000       79.4097748       1.67011583    
   0.00000000       0.00000000       0.00000000       79.6273804       1.66990781    
  -1.87057400     -0.360523999      -0.00000000       79.6273804       1.66990781    
  -1.88107097     -0.300992996      -0.00000000       79.6273804       1.66990781    
  -1.88967395     -0.241159007      -0.00000000       79.6273804       1.66990781    
  -1.82783401     -0.536701024      -0.00000000       79.2157745       1.67019689    
  -1.84394205     -0.478437006      -0.00000000       79.2157745       1.67019689    
   0.00000000       0.00000000       0.00000000       79.2157745       1.67019689    
  -1.80988598     -0.594424009      -0.00000000       79.2157745       1.67019689    
  -1.74518704     -0.763773024      -0.00000000       79.1794968       1.66938221    
  -1.76854098     -0.708016992      -0.00000000       79.1794968       1.66938221    
   0.00000000       0.00000000       0.00000000       79.1794968       1.66938221    
  -1.72007501     -0.818759024      -0.00000000       79.1794968       1.66938221    
   0.00000000       0.00000000       0.00000000       79.1312332       1.66997135    
  -1.76854098     -0.708016992      -0.00000000       79.1312332       1.66997135    
  -1.79011405     -0.651548028      -0.00000000       79.1312332       1.66997135    
  -1.80988598     -0.594424009      -0.00000000       79.1312332       1.66997135    
  -1.69323206     -0.872922003      -0.00000000       79.4227982       1.66829693    
  -1.72007501     -0.818759024      -0.00000000       79.4227982       1.66829693    
   0.00000000       0.00000000       0.00000000       79.4227982       1.66829693    
  -1.66468298     -0.926204979      -0.00000000       79.4227982       1.66829693    
  -1.56910396      -1.08024895      -0.00000000       80.4411011       1.66473246    
  -1.60258806      -1.02992105      -0.00000000       80.4411011       1.66473246    
   0.00000000       0.00000000       0.00000000       80.4411011       1.66473246    
  -1.53403997      -1.12949002      -0.00000000       80.4411011       1.66473246    
   0.00000000       0.00000000       0.00000000       79.8691254       1.66669858    
  -1.60258806      -1.02992105      -0.00000000       79.8691254       1.66669858    
  -1.63445795     -0.978555024      -0.00000000       79.8691254       1.66669858    
  -1.66468298     -0.926204979      -0.00000000       79.8691254       1.66669858    
  -1.49743104      -1.17759299      -0.00000000       80.9430847       1.66277730    
  -1.53403997      -1.12949002      -0.00000000       80.9430847       1.66277730    
   0.00000000       0.00000000       0.00000000       80.9430847       1.66277730    
  -1.45931494      -1.22450995      -0.00000000       80.9430847       1.66277730    
  -1.33631003      -1.35768199      -0.00000000       79.2302322       1.66354847    
  -1.37871301      -1.31459999      -0.00000000       79.2302322       1.66354847    
   0.00000000       0.00000000       0.00000000       79.2302322       1.66354847    
  -1.29255998      -1.39939702      -0.00000000       79.2302322       1.66354847    
   0.00000000       0.00000000       0.00000000       81.0308685       1.66145730    
  -1.37871301      -1.31459999      -0.00000000       81.0308685       1.66145730    
  -1.41972899      -1.27019501      -0.00000000       81.0308685       1.66145730    
  -1.45931494      -1.22450995      -0.00000000       81.0308685       1.66145730    
  -1.24750996      -1.43970299      -0.00000000       73.6924973       1.67345440    
  -1.29255998      -1.39939702      -0.00000000       73.6924973       1.67345440    
   0.00000000       0.00000000       0.00000000       73.6924973       1.67345440    
  -1.20120299      -1.47855902      -0.00000000       73.6924973       1.67345440    
  -1.05521798      -1.58604598      -0.00000000       58.6583519       1.71057928    
  -1.10500801      -1.55176699      -0.00000000       58.6583519       1.71057928    
   0.00000000       0.00000000       0.00000000       58.6583519       1.71057928    
  -1.00436401      -1.61872697      -0.00000000       58.6583519       1.71057928    
   0.00000000       0.00000000       0.00000000       66.3006363       1.68966639    
  -1.10500801      -1.55176699      -0.00000000       66.3006363       1.68966639    
  -1.15368605      -1.51592600      -0.00000000       66.3006363       1.68966639    
  -1.20120299      -1.47855902      -0.00000000       66.3006363       1.68966639    
 -0.952499986      -1.64977801      -0.00000000       51.1651611       1.73684275    
  -1.00436401      -1.61872697      -0.00000000       51.1651611       1.73684275    
   0.00000000       0.00000000       0.00000000       51.1651611       1.73684275    
 -0.899676025      -1.67916906      -0.00000000       51.1651611       1.73684275    
 -0.735987008      -1.75708497      -0.00000000       37.2506676       1.81226873    
 -0.791365981      -1.73284900      -0.00000000       37.2506676       1.81226873    
   0.00000000       0.00000000       0.00000000       37.2506676       1.81226873    
 -0.679867983      -1.77955198      -0.00000000       37.2506676       1.81226873    
   0.00000000       0.00000000       0.00000000       44.0212097       1.76978099    
 -0.791365981      -1.73284900      -0.00000000       44.0212097       1.76978099    
 -0.845947027      -1.70686805      -0.00000000       44.0212097       1.76978099    
 -0.899676025      -1.67916906      -0.00000000       44.0212097       1.76978099    
 -0.623063982      -1.80022705      -0.00000000       30.8717804       1.86913991    
 -0.679867983      -1.77955198      -0.00000000       30.8717804       1.86913991    
   0.00000000       0.00000000       0.00000000       30.8717804       1.86913991    
 -0.565632999      -1.81908906      -0.00000000       30.8717804       1.86913991    
 -0.390157014      -1.86461902      -0.00000000       19.3259792       2.07283640    
 -0.449120998      -1.85130095      -0.00000000       19.3259792       2.07283640    
   0.00000000       0.00000000       0.00000000       19.3259792       2.07283640    
 -0.330799997      -1.87605906      -0.00000000       19.3259792       2.07283640    
   0.00000000       0.00000000       0.00000000       24.8832550       1.94967747    
 -0.449120998      -1.85130095      -0.00000000       24.8832550       1.94967747    
 -0.507632971      -1.83611906      -0.00000000       24.8832550       1.94967747    
 -0.565632999      -1.81908906      -0.00000000       24.8832550       1.94967747    
 -0.271109998      -1.88560998      -0.00000000       14.3565817       2.28158212    
 -0.330799997      -1.87605906      -0.00000000       14.3565817       2.28158212    
   0.00000000       0.00000000       0.00000000       14.3565817       2.28158212    
 -0.211146995      -1.89326203      -0.00000000       14.3565817       2.28158212    
  -3.02249994E-02  -1.90476000      -0.00000000       9.47773361      -3.03486538    
  -9.06440020E-02  -1.90284204      -0.00000000       9.47773361      -3.03486538    
   0.00000000       0.00000000       0.00000000       9.47773361      -3.03486538    
   3.02249994E-02  -1.90476000      -0.00000000       9.47773361      -3.03486538    
   0.00000000       0.00000000       0.00000000       10.6085339       2.66117048    
  -9.06440020E-02  -1.90284204      -0.00000000       10.6085339       2.66117048    
 -0.150970995      -1.89900804      -0.00000000       10.6085339       2.66117048    
 -0.211146995      -1.89326203      -0.00000000       10.6085339       2.66117048    
   9.06440020E-02  -1.90284204      -0.00000000       11.6793461      -2.50877118    
   3.02249994E-02  -1.90476000      -0.00000000       11.6793461      -2.50877118    
   0.00000000       0.00000000       0.00000000       11.6793461      -2.50877118    
  0.150970995      -1.89900804      -0.00000000       11.6793461      -2.50877118    
  0.330799997      -1.87605906      -0.00000000       21.0593910      -2.02997828    
  0.271109998      -1.88560998      -0.00000000       21.0593910      -2.02997828    
   0.00000000       0.00000000       0.00000000       21.0593910      -2.02997828    
  0.390157014      -1.86461902      -0.00000000       21.0593910      -2.02997828    
   0.00000000       0.00000000       0.00000000       15.9206715      -2.20149040    
  0.271109998      -1.88560998      -0.00000000       15.9206715      -2.20149040    
  0.211146995      -1.89326203      -0.00000000       15.9206715      -2.20149040    
  0.150970995      -1.89900804      -0.00000000       15.9206715      -2.20149040    
  0.449120998      -1.85130095      -0.00000000       26.6395626      -1.92547846    
  0.390157014      -1.86461902      -0.00000000       26.6395626      -1.92547846    
   0.00000000       0.00000000       0.00000000       26.6395626      -1.92547846    
  0.507632971      -1.83611906      -0.00000000       26.6395626      -1.92547846    
  0.679867983      -1.77955198      -0.00000000       38.8024292      -1.80463302    
  0.623063982      -1.80022705      -0.00000000       38.8024292      -1.80463302    
   0.00000000       0.00000000       0.00000000       38.8024292      -1.80463302    
  0.735987008      -1.75708497      -0.00000000       38.8024292      -1.80463302    
   0.00000000       0.00000000       0.00000000       32.5503922      -1.85538602    
  0.623063982      -1.80022705      -0.00000000       32.5503922      -1.85538602    
  0.565632999      -1.81908906      -0.00000000       32.5503922      -1.85538602    
  0.507632971      -1.83611906      -0.00000000       32.5503922      -1.85538602    
  0.791365981      -1.73284900      -0.00000000       45.3671684      -1.76616549    
  0.735987008      -1.75708497      -0.00000000       45.3671684      -1.76616549    
   0.00000000       0.00000000       0.00000000       45.3671684      -1.76616549    
  0.845947027      -1.70686805      -0.00000000       45.3671684      -1.76616549    
   1.00436401      -1.61872697      -0.00000000       59.5338783      -1.71105373    
  0.952499986      -1.64977801      -0.00000000       59.5338783      -1.71105373    
   0.00000000       0.00000000       0.00000000       59.5338783      -1.71105373    
   1.05521798      -1.58604598      -0.00000000       59.5338783      -1.71105373    
   0.00000000       0.00000000       0.00000000       52.2842407      -1.73572576    
  0.952499986      -1.64977801      -0.00000000       52.2842407      -1.73572576    
  0.899676025      -1.67916906      -0.00000000       52.2842407      -1.73572576    
  0.845947027      -1.70686805      -0.00000000       52.2842407      -1.73572576    
   1.10500801      -1.55176699      -0.00000000       67.0215454      -1.69088089    
   1.05521798      -1.58604598      -0.00000000       67.0215454      -1.69088089    
   0.00000000       0.00000000       0.00000000       67.0215454      -1.69088089    
   1.15368605      -1.51592600      -0.00000000       67.0215454      -1.69088089    
   1.29255998      -1.39939702      -0.00000000       81.6971817      -1.66162503    
   1.24750996      -1.43970299      -0.00000000       81.6971817      -1.66162503    
   0.00000000       0.00000000       0.00000000       81.6971817      -1.66162503    
   1.33631003      -1.35768199      -0.00000000       81.6971817      -1.66162503    
   0.00000000       0.00000000       0.00000000       74.5340729      -1.67451692    
   1.24750996      -1.43970299      -0.00000000       74.5340729      -1.67451692    
   1.20120299      -1.47855902      -0.00000000       74.5340729      -1.67451692    