 VARIABLES="X" "Y" "Z" "abs(p) (Pa)" "angle(p) (rad)"
ZONE N=    802,E =     800, F=FEPOINT, ET=QUADRILATERAL
   1.90499997       0.00000000      -0.00000000       41.9449883       1.78158450    
   1.90404105      -6.04420006E-02  -0.00000000       41.9449883       1.78158450    
   0.00000000       0.00000000       0.00000000       41.9449883       1.78158450    
   1.90404105       6.04420006E-02  -0.00000000       41.9449883       1.78158450    
   1.88967395      0.241159007      -0.00000000       41.9238930       1.78168058    
   1.89637399      0.181081995      -0.00000000       41.9238930       1.78168058    
   0.00000000       0.00000000       0.00000000       41.9238930       1.78168058    
   1.88107097      0.300992996      -0.00000000       41.9238930       1.78168058    
   0.00000000       0.00000000       0.00000000       41.9402580       1.78160644    
   1.89637399      0.181081995      -0.00000000       41.9402580       1.78160644    
   1.90116501      0.120823003      -0.00000000       41.9402580       1.78160644    
   1.90404105       6.04420006E-02  -0.00000000       41.9402580       1.78160644    
   1.87057400      0.360523999      -0.00000000       41.8941803       1.78181672    
   1.88107097      0.300992996      -0.00000000       41.8941803       1.78181672    
   0.00000000       0.00000000       0.00000000       41.8941803       1.78181672    
   1.85819399      0.419692010      -0.00000000       41.8941803       1.78181672    
   1.80988598      0.594424009      -0.00000000       41.7859802       1.78231406    
   1.82783401      0.536701024      -0.00000000       41.7859802       1.78231406    
   0.00000000       0.00000000       0.00000000       41.7859802       1.78231406    
   1.79011405      0.651548028      -0.00000000       41.7859802       1.78231406    
   0.00000000       0.00000000       0.00000000       41.8496323       1.78202152    
   1.82783401      0.536701024      -0.00000000       41.8496323       1.78202152    
   1.84394205      0.478437006      -0.00000000       41.8496323       1.78202152    
   1.85819399      0.419692010      -0.00000000       41.8496323       1.78202152    
   1.76854098      0.708016992      -0.00000000       41.6998749       1.78271067    
   1.79011405      0.651548028      -0.00000000       41.6998749       1.78271067    
   0.00000000       0.00000000       0.00000000       41.6998749       1.78271067    
   1.74518704      0.763773024      -0.00000000       41.6998749       1.78271067    
   1.66468298      0.926204979      -0.00000000       41.4561462       1.78383124    
   1.69323206      0.872922003      -0.00000000       41.4561462       1.78383124    
   0.00000000       0.00000000       0.00000000       41.4561462       1.78383124    
   1.63445795      0.978555024      -0.00000000       41.4561462       1.78383124    
   0.00000000       0.00000000       0.00000000       41.5902214       1.78321528    
   1.69323206      0.872922003      -0.00000000       41.5902214       1.78321528    
   1.72007501      0.818759024      -0.00000000       41.5902214       1.78321528    
   1.74518704      0.763773024      -0.00000000       41.5902214       1.78321528    
   1.60258806       1.02992105      -0.00000000       41.3012085       1.78454125    
   1.63445795      0.978555024      -0.00000000       41.3012085       1.78454125    
   0.00000000       0.00000000       0.00000000       41.3012085       1.78454125    
   1.56910396       1.08024895      -0.00000000       41.3012085       1.78454125    
   1.45931494       1.22450995      -0.00000000       40.9743614       1.78601849    
   1.49743104       1.17759299      -0.00000000       40.9743614       1.78601849    
   0.00000000       0.00000000       0.00000000       40.9743614       1.78601849    
   1.41972899       1.27019501      -0.00000000       40.9743614       1.78601849    
   0.00000000       0.00000000       0.00000000       41.1341896       1.78530073    
   1.49743104       1.17759299      -0.00000000       41.1341896       1.78530073    
   1.53403997       1.12949002      -0.00000000       41.1341896       1.78530073    
   1.56910396       1.08024895      -0.00000000       41.1341896       1.78530073    
   1.37871301       1.31459999      -0.00000000       40.8941536       1.78637207    
   1.41972899       1.27019501      -0.00000000       40.8941536       1.78637207    
   0.00000000       0.00000000       0.00000000       40.8941536       1.78637207    
   1.33631003       1.35768199      -0.00000000       40.8941536       1.78637207    
   1.20120299       1.47855902      -0.00000000       41.1609802       1.78516853    
   1.24750996       1.43970299      -0.00000000       41.1609802       1.78516853    
   0.00000000       0.00000000       0.00000000       41.1609802       1.78516853    
   1.15368605       1.51592600      -0.00000000       41.1609802       1.78516853    
   0.00000000       0.00000000       0.00000000       40.9862404       1.78595710    
   1.24750996       1.43970299      -0.00000000       40.9862404       1.78595710    
   1.29255998       1.39939702      -0.00000000       40.9862404       1.78595710    
   1.33631003       1.35768199      -0.00000000       40.9862404       1.78595710    
   1.10500801       1.55176699      -0.00000000       41.3386650       1.78435922    
   1.15368605       1.51592600      -0.00000000       41.3386650       1.78435922    
   0.00000000       0.00000000       0.00000000       41.3386650       1.78435922    
   1.05521798       1.58604598      -0.00000000       41.3386650       1.78435922    
  0.899676025       1.67916906      -0.00000000       41.6348076       1.78300321    
  0.952499986       1.64977801      -0.00000000       41.6348076       1.78300321    
   0.00000000       0.00000000       0.00000000       41.6348076       1.78300321    
  0.845947027       1.70686805      -0.00000000       41.6348076       1.78300321    
   0.00000000       0.00000000       0.00000000       41.4985542       1.78362811    
  0.952499986       1.64977801      -0.00000000       41.4985542       1.78362811    
   1.00436401       1.61872697      -0.00000000       41.4985542       1.78362811    
   1.05521798       1.58604598      -0.00000000       41.4985542       1.78362811    
  0.791365981       1.73284900      -0.00000000       41.7446861       1.78249907    
  0.845947027       1.70686805      -0.00000000       41.7446861       1.78249907    
   0.00000000       0.00000000       0.00000000       41.7446861       1.78249907    
  0.735987008       1.75708497      -0.00000000       41.7446861       1.78249907    
  0.565632999       1.81908906      -0.00000000       41.8924217       1.78182209    
  0.623063982       1.80022705      -0.00000000       41.8924217       1.78182209    
   0.00000000       0.00000000       0.00000000       41.8924217       1.78182209    
  0.507632971       1.83611906      -0.00000000       41.8924217       1.78182209    
   0.00000000       0.00000000       0.00000000       41.8292732       1.78211105    
  0.623063982       1.80022705      -0.00000000       41.8292732       1.78211105    
  0.679867983       1.77955198      -0.00000000       41.8292732       1.78211105    
  0.735987008       1.75708497      -0.00000000       41.8292732       1.78211105    
  0.449120998       1.85130095      -0.00000000       41.9376488       1.78161561    
  0.507632971       1.83611906      -0.00000000       41.9376488       1.78161561    
   0.00000000       0.00000000       0.00000000       41.9376488       1.78161561    
  0.390157014       1.86461902      -0.00000000       41.9376488       1.78161561    
  0.211146995       1.89326203      -0.00000000       41.9867630       1.78139222    
  0.271109998       1.88560998      -0.00000000       41.9867630       1.78139222    
   0.00000000       0.00000000       0.00000000       41.9867630       1.78139222    
  0.150970995       1.89900804      -0.00000000       41.9867630       1.78139222    
   0.00000000       0.00000000       0.00000000       41.9686737       1.78147459    
  0.271109998       1.88560998      -0.00000000       41.9686737       1.78147459    
  0.330799997       1.87605906      -0.00000000       41.9686737       1.78147459    
  0.390157014       1.86461902      -0.00000000       41.9686737       1.78147459    
   9.06440020E-02   1.90284204      -0.00000000       41.9949646       1.78135514    
  0.150970995       1.89900804      -0.00000000       41.9949646       1.78135514    
   0.00000000       0.00000000       0.00000000       41.9949646       1.78135514    
   3.02249994E-02   1.90476000      -0.00000000       41.9949646       1.78135514    
 -0.150970995       1.89900804      -0.00000000       41.9854889       1.78139806    
  -9.06440020E-02   1.90284204      -0.00000000       41.9854889       1.78139806    
   0.00000000       0.00000000       0.00000000       41.9854889       1.78139806    
 -0.211146995       1.89326203      -0.00000000       41.9854889       1.78139806    
   0.00000000       0.00000000       0.00000000       41.9947510       1.78135645    
  -9.06440020E-02   1.90284204      -0.00000000       41.9947510       1.78135645    
  -3.02249994E-02   1.90476000      -0.00000000       41.9947510       1.78135645    
   3.02249994E-02   1.90476000      -0.00000000       41.9947510       1.78135645    
 -0.271109998       1.88560998      -0.00000000       41.9646225       1.78149307    
 -0.211146995       1.89326203      -0.00000000       41.9646225       1.78149307    
   0.00000000       0.00000000       0.00000000       41.9646225       1.78149307    
 -0.330799997       1.87605906      -0.00000000       41.9646225       1.78149307    
 -0.507632971       1.83611906      -0.00000000       41.8825417       1.78186846    
 -0.449120998       1.85130095      -0.00000000       41.8825417       1.78186846    
   0.00000000       0.00000000       0.00000000       41.8825417       1.78186846    
 -0.565632999       1.81908906      -0.00000000       41.8825417       1.78186846    
   0.00000000       0.00000000       0.00000000       41.9309425       1.78164661    
 -0.449120998       1.85130095      -0.00000000       41.9309425       1.78164661    
 -0.390157014       1.86461902      -0.00000000       41.9309425       1.78164661    
 -0.330799997       1.87605906      -0.00000000       41.9309425       1.78164661    
 -0.623063982       1.80022705      -0.00000000       41.8149071       1.78217828    
 -0.565632999       1.81908906      -0.00000000       41.8149071       1.78217828    
   0.00000000       0.00000000       0.00000000       41.8149071       1.78217828    
 -0.679867983       1.77955198      -0.00000000       41.8149071       1.78217828    
 -0.845947027       1.70686805      -0.00000000       41.6114693       1.78311372    
 -0.791365981       1.73284900      -0.00000000       41.6114693       1.78311372    
   0.00000000       0.00000000       0.00000000       41.6114693       1.78311372    
 -0.899676025       1.67916906      -0.00000000       41.6114693       1.78311372    
   0.00000000       0.00000000       0.00000000       41.7249336       1.78259218    
 -0.791365981       1.73284900      -0.00000000       41.7249336       1.78259218    
 -0.735987008       1.75708497      -0.00000000       41.7249336       1.78259218    
 -0.679867983       1.77955198      -0.00000000       41.7249336       1.78259218    
 -0.952499986       1.64977801      -0.00000000       41.4743576       1.78374386    
 -0.899676025       1.67916906      -0.00000000       41.4743576       1.78374386    
   0.00000000       0.00000000       0.00000000       41.4743576       1.78374386    
  -1.00436401       1.61872697      -0.00000000       41.4743576       1.78374386    
  -1.15368605       1.51592600      -0.00000000       41.1475639       1.78523529    
  -1.10500801       1.55176699      -0.00000000       41.1475639       1.78523529    
   0.00000000       0.00000000       0.00000000       41.1475639       1.78523529    
  -1.20120299       1.47855902      -0.00000000       41.1475639       1.78523529    
   0.00000000       0.00000000       0.00000000       41.3168907       1.78446496    
  -1.10500801       1.55176699      -0.00000000       41.3168907       1.78446496    
  -1.05521798       1.58604598      -0.00000000       41.3168907       1.78446496    
  -1.00436401       1.61872697      -0.00000000       41.3168907       1.78446496    
  -1.24750996       1.43970299      -0.00000000       40.9859428       1.78596103    
  -1.20120299       1.47855902      -0.00000000       40.9859428       1.78596103    
   0.00000000       0.00000000       0.00000000       40.9859428       1.78596103    
  -1.29255998       1.39939702      -0.00000000       40.9859428       1.78596103    
  -1.41972899       1.27019501      -0.00000000       40.9962654       1.78590798    
  -1.37871301       1.31459999      -0.00000000       40.9962654       1.78590798    
   0.00000000       0.00000000       0.00000000       40.9962654       1.78590798    
  -1.45931494       1.22450995      -0.00000000       40.9962654       1.78590798    
   0.00000000       0.00000000       0.00000000       40.9048843       1.78631854    
  -1.37871301       1.31459999      -0.00000000       40.9048843       1.78631854    
  -1.33631003       1.35768199      -0.00000000       40.9048843       1.78631854    
  -1.29255998       1.39939702      -0.00000000       40.9048843       1.78631854    
  -1.49743104       1.17759299      -0.00000000       41.1698570       1.78512526    
  -1.45931494       1.22450995      -0.00000000       41.1698570       1.78512526    
   0.00000000       0.00000000       0.00000000       41.1698570       1.78512526    
  -1.53403997       1.12949002      -0.00000000       41.1698570       1.78512526    
  -1.63445795      0.978555024      -0.00000000       41.5058327       1.78359270    
  -1.60258806       1.02992105      -0.00000000       41.5058327       1.78359270    
   0.00000000       0.00000000       0.00000000       41.5058327       1.78359270    
  -1.66468298      0.926204979      -0.00000000       41.5058327       1.78359270    
   0.00000000       0.00000000       0.00000000       41.3465958       1.78432107    
  -1.60258806       1.02992105      -0.00000000       41.3465958       1.78432107    
  -1.56910396       1.08024895      -0.00000000       41.3465958       1.78432107    
  -1.53403997       1.12949002      -0.00000000       41.3465958       1.78432107    
  -1.69323206      0.872922003      -0.00000000       41.6415253       1.78297102    
  -1.66468298      0.926204979      -0.00000000       41.6415253       1.78297102    
   0.00000000       0.00000000       0.00000000       41.6415253       1.78297102    
  -1.72007501      0.818759024      -0.00000000       41.6415253       1.78297102    
  -1.79011405      0.651548028      -0.00000000       41.8348618       1.78208435    
  -1.76854098      0.708016992      -0.00000000       41.8348618       1.78208435    
   0.00000000       0.00000000       0.00000000       41.8348618       1.78208435    
  -1.80988598      0.594424009      -0.00000000       41.8348618       1.78208435    
   0.00000000       0.00000000       0.00000000       41.7508469       1.78246951    
  -1.76854098      0.708016992      -0.00000000       41.7508469       1.78246951    
  -1.74518704      0.763773024      -0.00000000       41.7508469       1.78246951    
  -1.72007501      0.818759024      -0.00000000       41.7508469       1.78246951    
  -1.82783401      0.536701024      -0.00000000       41.8975830       1.78179789    
  -1.80988598      0.594424009      -0.00000000       41.8975830       1.78179789    
   0.00000000       0.00000000       0.00000000       41.8975830       1.78179789    
  -1.84394205      0.478437006      -0.00000000       41.8975830       1.78179789    
  -1.88107097      0.300992996      -0.00000000       41.9730835       1.78145349    
  -1.87057400      0.360523999      -0.00000000       41.9730835       1.78145349    
   0.00000000       0.00000000       0.00000000       41.9730835       1.78145349    
  -1.88967395      0.241159007      -0.00000000       41.9730835       1.78145349    
   0.00000000       0.00000000       0.00000000       41.9424400       1.78159273    
  -1.87057400      0.360523999      -0.00000000       41.9424400       1.78159273    
  -1.85819399      0.419692010      -0.00000000       41.9424400       1.78159273    
  -1.84394205      0.478437006      -0.00000000       41.9424400       1.78159273    
  -1.89637399      0.181081995      -0.00000000       41.9908485       1.78137302    
  -1.88967395      0.241159007      -0.00000000       41.9908485       1.78137302    
   0.00000000       0.00000000       0.00000000       41.9908485       1.78137302    
  -1.90116501      0.120823003      -0.00000000       41.9908485       1.78137302    
  -1.90404105      -6.04420006E-02  -0.00000000       41.9984856       1.78133869    
  -1.90499997       0.00000000      -0.00000000       41.9984856       1.78133869    
   0.00000000       0.00000000       0.00000000       41.9984856       1.78133869    
  -1.90116501     -0.120823003      -0.00000000       41.9984856       1.78133869    
   0.00000000       0.00000000       0.00000000       41.9988060       1.78133714    
  -1.90499997       0.00000000      -0.00000000       41.9988060       1.78133714    
  -1.90404105       6.04420006E-02  -0.00000000       41.9988060       1.78133714    
  -1.90116501      0.120823003      -0.00000000       41.9988060       1.78133714    
  -1.89637399     -0.181081995      -0.00000000       41.9888039       1.78138232    
  -1.90116501     -0.120823003      -0.00000000       41.9888039       1.78138232    
   0.00000000       0.00000000       0.00000000       41.9888039       1.78138232    
  -1.88967395     -0.241159007      -0.00000000       41.9888039       1.78138232    
  -1.85819399     -0.419692010      -0.00000000       41.9338112       1.78163302    
  -1.87057400     -0.360523999      -0.00000000       41.9338112       1.78163302    
   0.00000000       0.00000000       0.00000000       41.9338112       1.78163302    
  -1.84394205     -0.478437006      -0.00000000       41.9338112       1.78163302    
   0.00000000       0.00000000       0.00000000       41.9678192       1.78147769    
  -1.87057400     -0.360523999      -0.00000000       41.9678192       1.78147769    
  -1.88107097     -0.300992996      -0.00000000       41.9678192       1.78147769    
  -1.88967395     -0.241159007      -0.00000000       41.9678192       1.78147769    
  -1.82783401     -0.536701024      -0.00000000       41.8850784       1.78185606    
  -1.84394205     -0.478437006      -0.00000000       41.8850784       1.78185606    
   0.00000000       0.00000000       0.00000000       41.8850784       1.78185606    
  -1.80988598     -0.594424009      -0.00000000       41.8850784       1.78185606    
  -1.74518704     -0.763773024      -0.00000000       41.7266502       1.78258419    
  -1.76854098     -0.708016992      -0.00000000       41.7266502       1.78258419    
   0.00000000       0.00000000       0.00000000       41.7266502       1.78258419    
  -1.72007501     -0.818759024      -0.00000000       41.7266502       1.78258419    
   0.00000000       0.00000000       0.00000000       41.8170357       1.78216863    
  -1.76854098     -0.708016992      -0.00000000       41.8170357       1.78216863    
  -1.79011405     -0.651548028      -0.00000000       41.8170357       1.78216863    
  -1.80988598     -0.594424009      -0.00000000       41.8170357       1.78216863    
  -1.69323206     -0.872922003      -0.00000000       41.6128540       1.78310728    
  -1.72007501     -0.818759024      -0.00000000       41.6128540       1.78310728    
   0.00000000       0.00000000       0.00000000       41.6128540       1.78310728    
  -1.66468298     -0.926204979      -0.00000000       41.6128540       1.78310728    
  -1.56910396      -1.08024895      -0.00000000       41.3172760       1.78446317    
  -1.60258806      -1.02992105      -0.00000000       41.3172760       1.78446317    
   0.00000000       0.00000000       0.00000000       41.3172760       1.78446317    
  -1.53403997      -1.12949002      -0.00000000       41.3172760       1.78446317    
   0.00000000       0.00000000       0.00000000       41.4752235       1.78373969    
  -1.60258806      -1.02992105      -0.00000000       41.4752235       1.78373969    
  -1.63445795     -0.978555024      -0.00000000       41.4752235       1.78373969    
  -1.66468298     -0.926204979      -0.00000000       41.4752235       1.78373969    
  -1.49743104      -1.17759299      -0.00000000       41.1473770       1.78523588    
  -1.53403997      -1.12949002      -0.00000000       41.1473770       1.78523588    
   0.00000000       0.00000000       0.00000000       41.1473770       1.78523588    
  -1.45931494      -1.22450995      -0.00000000       41.1473770       1.78523588    
  -1.33631003      -1.35768199      -0.00000000       40.9043121       1.78632116    
  -1.37871301      -1.31459999      -0.00000000       40.9043121       1.78632116    
   0.00000000       0.00000000       0.00000000       40.9043121       1.78632116    
  -1.29255998      -1.39939702      -0.00000000       40.9043121       1.78632116    
   0.00000000       0.00000000       0.00000000       40.9853058       1.78596389    
  -1.37871301      -1.31459999      -0.00000000       40.9853058       1.78596389    
  -1.41972899      -1.27019501      -0.00000000       40.9853058       1.78596389    
  -1.45931494      -1.22450995      -0.00000000       40.9853058       1.78596389    
  -1.24750996      -1.43970299      -0.00000000       40.9957962       1.78591073    
  -1.29255998      -1.39939702      -0.00000000       40.9957962       1.78591073    
   0.00000000       0.00000000       0.00000000       40.9957962       1.78591073    
  -1.20120299      -1.47855902      -0.00000000       40.9957962       1.78591073    
  -1.05521798      -1.58604598      -0.00000000       41.3452301       1.78432739    
  -1.10500801      -1.55176699      -0.00000000       41.3452301       1.78432739    
   0.00000000       0.00000000       0.00000000       41.3452301       1.78432739    
  -1.00436401      -1.61872697      -0.00000000       41.3452301       1.78432739    
   0.00000000       0.00000000       0.00000000       41.1689949       1.78512979    
  -1.10500801      -1.55176699      -0.00000000       41.1689949       1.78512979    
  -1.15368605      -1.51592600      -0.00000000       41.1689949       1.78512979    
  -1.20120299      -1.47855902      -0.00000000       41.1689949       1.78512979    
 -0.952499986      -1.64977801      -0.00000000       41.5039330       1.78360200    
  -1.00436401      -1.61872697      -0.00000000       41.5039330       1.78360200    
   0.00000000       0.00000000       0.00000000       41.5039330       1.78360200    
 -0.899676025      -1.67916906      -0.00000000       41.5039330       1.78360200    
 -0.735987008      -1.75708497      -0.00000000       41.7481422       1.78248179    
 -0.791365981      -1.73284900      -0.00000000       41.7481422       1.78248179    
   0.00000000       0.00000000       0.00000000       41.7481422       1.78248179    
 -0.679867983      -1.77955198      -0.00000000       41.7481422       1.78248179    
   0.00000000       0.00000000       0.00000000       41.6391640       1.78298235    
 -0.791365981      -1.73284900      -0.00000000       41.6391640       1.78298235    
 -0.845947027      -1.70686805      -0.00000000       41.6391640       1.78298235    
 -0.899676025      -1.67916906      -0.00000000       41.6391640       1.78298235    
 -0.623063982      -1.80022705      -0.00000000       41.8318787       1.78209853    
 -0.679867983      -1.77955198      -0.00000000       41.8318787       1.78209853    
   0.00000000       0.00000000       0.00000000       41.8318787       1.78209853    
 -0.565632999      -1.81908906      -0.00000000       41.8318787       1.78209853    
 -0.390157014      -1.86461902      -0.00000000       41.9387550       1.78160989    
 -0.449120998      -1.85130095      -0.00000000       41.9387550       1.78160989    
   0.00000000       0.00000000       0.00000000       41.9387550       1.78160989    
 -0.330799997      -1.87605906      -0.00000000       41.9387550       1.78160989    
   0.00000000       0.00000000       0.00000000       41.8942642       1.78181314    
 -0.449120998      -1.85130095      -0.00000000       41.8942642       1.78181314    
 -0.507632971      -1.83611906      -0.00000000       41.8942642       1.78181314    
 -0.565632999      -1.81908906      -0.00000000       41.8942642       1.78181314    
 -0.271109998      -1.88560998      -0.00000000       41.9692268       1.78147113    
 -0.330799997      -1.87605906      -0.00000000       41.9692268       1.78147113    
   0.00000000       0.00000000       0.00000000       41.9692268       1.78147113    
 -0.211146995      -1.89326203      -0.00000000       41.9692268       1.78147113    
  -3.02249994E-02  -1.90476000      -0.00000000       41.9944344       1.78135788    
  -9.06440020E-02  -1.90284204      -0.00000000       41.9944344       1.78135788    
   0.00000000       0.00000000       0.00000000       41.9944344       1.78135788    
   3.02249994E-02  -1.90476000      -0.00000000       41.9944344       1.78135788    
   0.00000000       0.00000000       0.00000000       41.9866447       1.78139234    
  -9.06440020E-02  -1.90284204      -0.00000000       41.9866447       1.78139234    
 -0.150970995      -1.89900804      -0.00000000       41.9866447       1.78139234    
 -0.211146995      -1.89326203      -0.00000000       41.9866447       1.78139234    
   9.06440020E-02  -1.90284204      -0.00000000       41.9938660       1.78136051    
   3.02249994E-02  -1.90476000      -0.00000000       41.9938660       1.78136051    
   0.00000000       0.00000000       0.00000000       41.9938660       1.78136051    
  0.150970995      -1.89900804      -0.00000000       41.9938660       1.78136051    
  0.330799997      -1.87605906      -0.00000000       41.9625778       1.78150249    
  0.271109998      -1.88560998      -0.00000000       41.9625778       1.78150249    
   0.00000000       0.00000000       0.00000000       41.9625778       1.78150249    
  0.390157014      -1.86461902      -0.00000000       41.9625778       1.78150249    
   0.00000000       0.00000000       0.00000000       41.9839211       1.78140545    
  0.271109998      -1.88560998      -0.00000000       41.9839211       1.78140545    
  0.211146995      -1.89326203      -0.00000000       41.9839211       1.78140545    
  0.150970995      -1.89900804      -0.00000000       41.9839211       1.78140545    
  0.449120998      -1.85130095      -0.00000000       41.9281120       1.78165996    
  0.390157014      -1.86461902      -0.00000000       41.9281120       1.78165996    
   0.00000000       0.00000000       0.00000000       41.9281120       1.78165996    
  0.507632971      -1.83611906      -0.00000000       41.9281120       1.78165996    
  0.679867983      -1.77955198      -0.00000000       41.8103676       1.78219986    
  0.623063982      -1.80022705      -0.00000000       41.8103676       1.78219986    
   0.00000000       0.00000000       0.00000000       41.8103676       1.78219986    
  0.735987008      -1.75708497      -0.00000000       41.8103676       1.78219986    
   0.00000000       0.00000000       0.00000000       41.8790207       1.78188479    
  0.623063982      -1.80022705      -0.00000000       41.8790207       1.78188479    
  0.565632999      -1.81908906      -0.00000000       41.8790207       1.78188479    
  0.507632971      -1.83611906      -0.00000000       41.8790207       1.78188479    
  0.791365981      -1.73284900      -0.00000000       41.7193794       1.78261828    
  0.735987008      -1.75708497      -0.00000000       41.7193794       1.78261828    
   0.00000000       0.00000000       0.00000000       41.7193794       1.78261828    
  0.845947027      -1.70686805      -0.00000000       41.7193794       1.78261828    
   1.00436401      -1.61872697      -0.00000000       41.4664726       1.78378177    
  0.952499986      -1.64977801      -0.00000000       41.4664726       1.78378177    
   0.00000000       0.00000000       0.00000000       41.4664726       1.78378177    
   1.05521798      -1.58604598      -0.00000000       41.4664726       1.78378177    
   0.00000000       0.00000000       0.00000000       41.6048660       1.78314555    
  0.952499986      -1.64977801      -0.00000000       41.6048660       1.78314555    
  0.899676025      -1.67916906      -0.00000000       41.6048660       1.78314555    
  0.845947027      -1.70686805      -0.00000000       41.6048660       1.78314555    
   1.10500801      -1.55176699      -0.00000000       41.3076401       1.78450954    
   1.05521798      -1.58604598      -0.00000000       41.3076401       1.78450954    
   0.00000000       0.00000000       0.00000000       41.3076401       1.78450954    
   1.15368605      -1.51592600      -0.00000000       41.3076401       1.78450954    
   1.29255998      -1.39939702      -0.00000000       40.9732437       1.78602231    
   1.24750996      -1.43970299      -0.00000000       40.9732437       1.78602231    
   0.00000000       0.00000000       0.00000000       40.9732437       1.78602231    
   1.33631003      -1.35768199      -0.00000000       40.9732437       1.78602231    
   0.00000000       0.00000000       0.00000000       41.1365623       1.78528857    
   1.24750996      -1.43970299      -0.00000000       41.1365623       1.78528857    
   1.20120299      -1.47855902      -0.00000000       41.1365623       1.78528857    