 VARIABLES="X" "Y" "Z" "abs(p) (Pa)" "angle(p) (rad)"
ZONE N=    802,E =     800, F=FEPOINT, ET=QUADRILATERAL
   1.90499997       0.00000000      -0.00000000       63.9929924       2.04930615    
   1.90404105      -6.04420006E-02  -0.00000000       63.9929924       2.04930615    
   0.00000000       0.00000000       0.00000000       63.9929924       2.04930615    
   1.90404105       6.04420006E-02  -0.00000000       63.9929924       2.04930615    
   1.88967395      0.241159007      -0.00000000       63.9427757       2.04955196    
   1.89637399      0.181081995      -0.00000000       63.9427757       2.04955196    
   0.00000000       0.00000000       0.00000000       63.9427757       2.04955196    
   1.88107097      0.300992996      -0.00000000       63.9427757       2.04955196    
   0.00000000       0.00000000       0.00000000       63.9798088       2.04937053    
   1.89637399      0.181081995      -0.00000000       63.9798088       2.04937053    
   1.90116501      0.120823003      -0.00000000       63.9798088       2.04937053    
   1.90404105       6.04420006E-02  -0.00000000       63.9798088       2.04937053    
   1.87057400      0.360523999      -0.00000000       63.8756447       2.04987955    
   1.88107097      0.300992996      -0.00000000       63.8756447       2.04987955    
   0.00000000       0.00000000       0.00000000       63.8756447       2.04987955    
   1.85819399      0.419692010      -0.00000000       63.8756447       2.04987955    
   1.80988598      0.594424009      -0.00000000       63.6080742       2.05120564    
   1.82783401      0.536701024      -0.00000000       63.6080742       2.05120564    
   0.00000000       0.00000000       0.00000000       63.6080742       2.05120564    
   1.79011405      0.651548028      -0.00000000       63.6080742       2.05120564    
   0.00000000       0.00000000       0.00000000       63.7679977       2.05041003    
   1.82783401      0.536701024      -0.00000000       63.7679977       2.05041003    
   1.84394205      0.478437006      -0.00000000       63.7679977       2.05041003    
   1.85819399      0.419692010      -0.00000000       63.7679977       2.05041003    
   1.76854098      0.708016992      -0.00000000       63.3908310       2.05228305    
   1.79011405      0.651548028      -0.00000000       63.3908310       2.05228305    
   0.00000000       0.00000000       0.00000000       63.3908310       2.05228305    
   1.74518704      0.763773024      -0.00000000       63.3908310       2.05228305    
   1.66468298      0.926204979      -0.00000000       62.7415581       2.05544591    
   1.69323206      0.872922003      -0.00000000       62.7415581       2.05544591    
   0.00000000       0.00000000       0.00000000       62.7415581       2.05544591    
   1.63445795      0.978555024      -0.00000000       62.7415581       2.05544591    
   0.00000000       0.00000000       0.00000000       63.1029739       2.05369473    
   1.69323206      0.872922003      -0.00000000       63.1029739       2.05369473    
   1.72007501      0.818759024      -0.00000000       63.1029739       2.05369473    
   1.74518704      0.763773024      -0.00000000       63.1029739       2.05369473    
   1.60258806       1.02992105      -0.00000000       62.3102760       2.05749273    
   1.63445795      0.978555024      -0.00000000       62.3102760       2.05749273    
   0.00000000       0.00000000       0.00000000       62.3102760       2.05749273    
   1.56910396       1.08024895      -0.00000000       62.3102760       2.05749273    
   1.45931494       1.22450995      -0.00000000       61.3600273       2.06175232    
   1.49743104       1.17759299      -0.00000000       61.3600273       2.06175232    
   0.00000000       0.00000000       0.00000000       61.3600273       2.06175232    
   1.41972899       1.27019501      -0.00000000       61.3600273       2.06175232    
   0.00000000       0.00000000       0.00000000       61.8333054       2.05968142    
   1.49743104       1.17759299      -0.00000000       61.8333054       2.05968142    
   1.53403997       1.12949002      -0.00000000       61.8333054       2.05968142    
   1.56910396       1.08024895      -0.00000000       61.8333054       2.05968142    
   1.37871301       1.31459999      -0.00000000       61.1142006       2.06276441    
   1.41972899       1.27019501      -0.00000000       61.1142006       2.06276441    
   0.00000000       0.00000000       0.00000000       61.1142006       2.06276441    
   1.33631003       1.35768199      -0.00000000       61.1142006       2.06276441    
   1.20120299       1.47855902      -0.00000000       61.8923149       2.05930877    
   1.24750996       1.43970299      -0.00000000       61.8923149       2.05930877    
   0.00000000       0.00000000       0.00000000       61.8923149       2.05930877    
   1.15368605       1.51592600      -0.00000000       61.8923149       2.05930877    
   0.00000000       0.00000000       0.00000000       61.3843994       2.06157494    
   1.24750996       1.43970299      -0.00000000       61.3843994       2.06157494    
   1.29255998       1.39939702      -0.00000000       61.3843994       2.06157494    
   1.33631003       1.35768199      -0.00000000       61.3843994       2.06157494    
   1.10500801       1.55176699      -0.00000000       62.3964729       2.05697775    
   1.15368605       1.51592600      -0.00000000       62.3964729       2.05697775    
   0.00000000       0.00000000       0.00000000       62.3964729       2.05697775    
   1.05521798       1.58604598      -0.00000000       62.3964729       2.05697775    
  0.899676025       1.67916906      -0.00000000       63.2076340       2.05310607    
  0.952499986       1.64977801      -0.00000000       63.2076340       2.05310607    
   0.00000000       0.00000000       0.00000000       63.2076340       2.05310607    
  0.845947027       1.70686805      -0.00000000       63.2076340       2.05310607    
   0.00000000       0.00000000       0.00000000       62.8427086       2.05485988    
  0.952499986       1.64977801      -0.00000000       62.8427086       2.05485988    
   1.00436401       1.61872697      -0.00000000       62.8427086       2.05485988    
   1.05521798       1.58604598      -0.00000000       62.8427086       2.05485988    
  0.791365981       1.73284900      -0.00000000       63.4975319       2.05169725    
  0.845947027       1.70686805      -0.00000000       63.4975319       2.05169725    
   0.00000000       0.00000000       0.00000000       63.4975319       2.05169725    
  0.735987008       1.75708497      -0.00000000       63.4975319       2.05169725    
  0.565632999       1.81908906      -0.00000000       63.8758507       2.04984879    
  0.623063982       1.80022705      -0.00000000       63.8758507       2.04984879    
   0.00000000       0.00000000       0.00000000       63.8758507       2.04984879    
  0.507632971       1.83611906      -0.00000000       63.8758507       2.04984879    
   0.00000000       0.00000000       0.00000000       63.7164383       2.05062842    
  0.623063982       1.80022705      -0.00000000       63.7164383       2.05062842    
  0.679867983       1.77955198      -0.00000000       63.7164383       2.05062842    
  0.735987008       1.75708497      -0.00000000       63.7164383       2.05062842    
  0.449120998       1.85130095      -0.00000000       63.9870338       2.04930925    
  0.507632971       1.83611906      -0.00000000       63.9870338       2.04930925    
   0.00000000       0.00000000       0.00000000       63.9870338       2.04930925    
  0.390157014       1.86461902      -0.00000000       63.9870338       2.04930925    
  0.211146995       1.89326203      -0.00000000       64.1066971       2.04874229    
  0.271109998       1.88560998      -0.00000000       64.1066971       2.04874229    
   0.00000000       0.00000000       0.00000000       64.1066971       2.04874229    
  0.150970995       1.89900804      -0.00000000       64.1066971       2.04874229    
   0.00000000       0.00000000       0.00000000       64.0609512       2.04895639    
  0.271109998       1.88560998      -0.00000000       64.0609512       2.04895639    
  0.330799997       1.87605906      -0.00000000       64.0609512       2.04895639    
  0.390157014       1.86461902      -0.00000000       64.0609512       2.04895639    
   9.06440020E-02   1.90284204      -0.00000000       64.1262054       2.04865074    
  0.150970995       1.89900804      -0.00000000       64.1262054       2.04865074    
   0.00000000       0.00000000       0.00000000       64.1262054       2.04865074    
   3.02249994E-02   1.90476000      -0.00000000       64.1262054       2.04865074    
 -0.150970995       1.89900804      -0.00000000       64.1037292       2.04875636    
  -9.06440020E-02   1.90284204      -0.00000000       64.1037292       2.04875636    
   0.00000000       0.00000000       0.00000000       64.1037292       2.04875636    
 -0.211146995       1.89326203      -0.00000000       64.1037292       2.04875636    
   0.00000000       0.00000000       0.00000000       64.1259079       2.04865265    
  -9.06440020E-02   1.90284204      -0.00000000       64.1259079       2.04865265    
  -3.02249994E-02   1.90476000      -0.00000000       64.1259079       2.04865265    
   3.02249994E-02   1.90476000      -0.00000000       64.1259079       2.04865265    
 -0.271109998       1.88560998      -0.00000000       64.0551071       2.04899001    
 -0.211146995       1.89326203      -0.00000000       64.0551071       2.04899001    
   0.00000000       0.00000000       0.00000000       64.0551071       2.04899001    
 -0.330799997       1.87605906      -0.00000000       64.0551071       2.04899001    
 -0.507632971       1.83611906      -0.00000000       63.8552437       2.04996490    
 -0.449120998       1.85130095      -0.00000000       63.8552437       2.04996490    
   0.00000000       0.00000000       0.00000000       63.8552437       2.04996490    
 -0.565632999       1.81908906      -0.00000000       63.8552437       2.04996490    
   0.00000000       0.00000000       0.00000000       63.9748497       2.04937935    
 -0.449120998       1.85130095      -0.00000000       63.9748497       2.04937935    
 -0.390157014       1.86461902      -0.00000000       63.9748497       2.04937935    
 -0.330799997       1.87605906      -0.00000000       63.9748497       2.04937935    
 -0.623063982       1.80022705      -0.00000000       63.6844177       2.05081224    
 -0.565632999       1.81908906      -0.00000000       63.6844177       2.05081224    
   0.00000000       0.00000000       0.00000000       63.6844177       2.05081224    
 -0.679867983       1.77955198      -0.00000000       63.6844177       2.05081224    
 -0.845947027       1.70686805      -0.00000000       63.1589470       2.05339527    
 -0.791365981       1.73284900      -0.00000000       63.1589470       2.05339527    
   0.00000000       0.00000000       0.00000000       63.1589470       2.05339527    
 -0.899676025       1.67916906      -0.00000000       63.1589470       2.05339527    
   0.00000000       0.00000000       0.00000000       63.4563332       2.05193806    
 -0.791365981       1.73284900      -0.00000000       63.4563332       2.05193806    
 -0.735987008       1.75708497      -0.00000000       63.4563332       2.05193806    
 -0.679867983       1.77955198      -0.00000000       63.4563332       2.05193806    
 -0.952499986       1.64977801      -0.00000000       62.7888718       2.05519009    
 -0.899676025       1.67916906      -0.00000000       62.7888718       2.05519009    
   0.00000000       0.00000000       0.00000000       62.7888718       2.05519009    
  -1.00436401       1.61872697      -0.00000000       62.7888718       2.05519009    
  -1.15368605       1.51592600      -0.00000000       61.8671761       2.05949068    
  -1.10500801       1.55176699      -0.00000000       61.8671761       2.05949068    
   0.00000000       0.00000000       0.00000000       61.8671761       2.05949068    
  -1.20120299       1.47855902      -0.00000000       61.8671761       2.05949068    
   0.00000000       0.00000000       0.00000000       62.3500404       2.05727363    
  -1.10500801       1.55176699      -0.00000000       62.3500404       2.05727363    
  -1.05521798       1.58604598      -0.00000000       62.3500404       2.05727363    
  -1.00436401       1.61872697      -0.00000000       62.3500404       2.05727363    
  -1.24750996       1.43970299      -0.00000000       61.3893089       2.06158304    
  -1.20120299       1.47855902      -0.00000000       61.3893089       2.06158304    
   0.00000000       0.00000000       0.00000000       61.3893089       2.06158304    
  -1.29255998       1.39939702      -0.00000000       61.3893089       2.06158304    
  -1.41972899       1.27019501      -0.00000000       61.4098625       2.06143236    
  -1.37871301       1.31459999      -0.00000000       61.4098625       2.06143236    
   0.00000000       0.00000000       0.00000000       61.4098625       2.06143236    
  -1.45931494       1.22450995      -0.00000000       61.4098625       2.06143236    
   0.00000000       0.00000000       0.00000000       61.1409912       2.06261206    
  -1.37871301       1.31459999      -0.00000000       61.1409912       2.06261206    
  -1.33631003       1.35768199      -0.00000000       61.1409912       2.06261206    
  -1.29255998       1.39939702      -0.00000000       61.1409912       2.06261206    
  -1.49743104       1.17759299      -0.00000000       61.9153938       2.05918050    
  -1.45931494       1.22450995      -0.00000000       61.9153938       2.05918050    
   0.00000000       0.00000000       0.00000000       61.9153938       2.05918050    
  -1.53403997       1.12949002      -0.00000000       61.9153938       2.05918050    
  -1.63445795      0.978555024      -0.00000000       62.8614349       2.05476022    
  -1.60258806       1.02992105      -0.00000000       62.8614349       2.05476022    
   0.00000000       0.00000000       0.00000000       62.8614349       2.05476022    
  -1.66468298      0.926204979      -0.00000000       62.8614349       2.05476022    
   0.00000000       0.00000000       0.00000000       62.4175491       2.05686259    
  -1.60258806       1.02992105      -0.00000000       62.4175491       2.05686259    
  -1.56910396       1.08024895      -0.00000000       62.4175491       2.05686259    
  -1.53403997       1.12949002      -0.00000000       62.4175491       2.05686259    
  -1.69323206      0.872922003      -0.00000000       63.2246132       2.05301523    
  -1.66468298      0.926204979      -0.00000000       63.2246132       2.05301523    
   0.00000000       0.00000000       0.00000000       63.2246132       2.05301523    
  -1.72007501      0.818759024      -0.00000000       63.2246132       2.05301523    
  -1.79011405      0.651548028      -0.00000000       63.7310066       2.05055285    
  -1.76854098      0.708016992      -0.00000000       63.7310066       2.05055285    
   0.00000000       0.00000000       0.00000000       63.7310066       2.05055285    
  -1.80988598      0.594424009      -0.00000000       63.7310066       2.05055285    
   0.00000000       0.00000000       0.00000000       63.5131874       2.05161691    
  -1.76854098      0.708016992      -0.00000000       63.5131874       2.05161691    
  -1.74518704      0.763773024      -0.00000000       63.5131874       2.05161691    
  -1.72007501      0.818759024      -0.00000000       63.5131874       2.05161691    
  -1.82783401      0.536701024      -0.00000000       63.8894157       2.04977751    
  -1.80988598      0.594424009      -0.00000000       63.8894157       2.04977751    
   0.00000000       0.00000000       0.00000000       63.8894157       2.04977751    
  -1.84394205      0.478437006      -0.00000000       63.8894157       2.04977751    
  -1.88107097      0.300992996      -0.00000000       64.0730133       2.04889536    
  -1.87057400      0.360523999      -0.00000000       64.0730133       2.04889536    
   0.00000000       0.00000000       0.00000000       64.0730133       2.04889536    
  -1.88967395      0.241159007      -0.00000000       64.0730133       2.04889536    
   0.00000000       0.00000000       0.00000000       63.9997482       2.04924583    
  -1.87057400      0.360523999      -0.00000000       63.9997482       2.04924583    
  -1.85819399      0.419692010      -0.00000000       63.9997482       2.04924583    
  -1.84394205      0.478437006      -0.00000000       63.9997482       2.04924583    
  -1.89637399      0.181081995      -0.00000000       64.1180267       2.04868579    
  -1.88967395      0.241159007      -0.00000000       64.1180267       2.04868579    
   0.00000000       0.00000000       0.00000000       64.1180267       2.04868579    
  -1.90116501      0.120823003      -0.00000000       64.1180267       2.04868579    
  -1.90404105      -6.04420006E-02  -0.00000000       64.1361847       2.04860425    
  -1.90499997       0.00000000      -0.00000000       64.1361847       2.04860425    
   0.00000000       0.00000000       0.00000000       64.1361847       2.04860425    
  -1.90116501     -0.120823003      -0.00000000       64.1361847       2.04860425    
   0.00000000       0.00000000       0.00000000       64.1368713       2.04859972    
  -1.90499997       0.00000000      -0.00000000       64.1368713       2.04859972    
  -1.90404105       6.04420006E-02  -0.00000000       64.1368713       2.04859972    
  -1.90116501      0.120823003      -0.00000000       64.1368713       2.04859972    
  -1.89637399     -0.181081995      -0.00000000       64.1136017       2.04871011    
  -1.90116501     -0.120823003      -0.00000000       64.1136017       2.04871011    
   0.00000000       0.00000000       0.00000000       64.1136017       2.04871011    
  -1.88967395     -0.241159007      -0.00000000       64.1136017       2.04871011    
  -1.85819399     -0.419692010      -0.00000000       63.9831581       2.04933906    
  -1.87057400     -0.360523999      -0.00000000       63.9831581       2.04933906    
   0.00000000       0.00000000       0.00000000       63.9831581       2.04933906    
  -1.84394205     -0.478437006      -0.00000000       63.9831581       2.04933906    
   0.00000000       0.00000000       0.00000000       64.0642166       2.04894662    
  -1.87057400     -0.360523999      -0.00000000       64.0642166       2.04894662    
  -1.88107097     -0.300992996      -0.00000000       64.0642166       2.04894662    
  -1.88967395     -0.241159007      -0.00000000       64.0642166       2.04894662    
  -1.82783401     -0.536701024      -0.00000000       63.8626862       2.04993105    
  -1.84394205     -0.478437006      -0.00000000       63.8626862       2.04993105    
   0.00000000       0.00000000       0.00000000       63.8626862       2.04993105    
  -1.80988598     -0.594424009      -0.00000000       63.8626862       2.04993105    
  -1.74518704     -0.763773024      -0.00000000       63.4615974       2.05191422    
  -1.76854098     -0.708016992      -0.00000000       63.4615974       2.05191422    
   0.00000000       0.00000000       0.00000000       63.4615974       2.05191422    
  -1.72007501     -0.818759024      -0.00000000       63.4615974       2.05191422    
   0.00000000       0.00000000       0.00000000       63.6907654       2.05078197    
  -1.76854098     -0.708016992      -0.00000000       63.6907654       2.05078197    
  -1.79011405     -0.651548028      -0.00000000       63.6907654       2.05078197    
  -1.80988598     -0.594424009      -0.00000000       63.6907654       2.05078197    
  -1.69323206     -0.872922003      -0.00000000       63.1630707       2.05337739    
  -1.72007501     -0.818759024      -0.00000000       63.1630707       2.05337739    
   0.00000000       0.00000000       0.00000000       63.1630707       2.05337739    
  -1.66468298     -0.926204979      -0.00000000       63.1630707       2.05337739    
  -1.56910396      -1.08024895      -0.00000000       62.3516922       2.05726790    
  -1.60258806      -1.02992105      -0.00000000       62.3516922       2.05726790    
   0.00000000       0.00000000       0.00000000       62.3516922       2.05726790    
  -1.53403997      -1.12949002      -0.00000000       62.3516922       2.05726790    
   0.00000000       0.00000000       0.00000000       62.7917938       2.05517626    
  -1.60258806      -1.02992105      -0.00000000       62.7917938       2.05517626    
  -1.63445795     -0.978555024      -0.00000000       62.7917938       2.05517626    
  -1.66468298     -0.926204979      -0.00000000       62.7917938       2.05517626    
  -1.49743104      -1.17759299      -0.00000000       61.8670692       2.05949354    
  -1.53403997      -1.12949002      -0.00000000       61.8670692       2.05949354    
   0.00000000       0.00000000       0.00000000       61.8670692       2.05949354    
  -1.45931494      -1.22450995      -0.00000000       61.8670692       2.05949354    
  -1.33631003      -1.35768199      -0.00000000       61.1395760       2.06262159    
  -1.37871301      -1.31459999      -0.00000000       61.1395760       2.06262159    
   0.00000000       0.00000000       0.00000000       61.1395760       2.06262159    
  -1.29255998      -1.39939702      -0.00000000       61.1395760       2.06262159    
   0.00000000       0.00000000       0.00000000       61.3876419       2.06159282    
  -1.37871301      -1.31459999      -0.00000000       61.3876419       2.06159282    
  -1.41972899      -1.27019501      -0.00000000       61.3876419       2.06159282    
  -1.45931494      -1.22450995      -0.00000000       61.3876419       2.06159282    
  -1.24750996      -1.43970299      -0.00000000       61.4085236       2.06144261    
  -1.29255998      -1.39939702      -0.00000000       61.4085236       2.06144261    
   0.00000000       0.00000000       0.00000000       61.4085236       2.06144261    
  -1.20120299      -1.47855902      -0.00000000       61.4085236       2.06144261    
  -1.05521798      -1.58604598      -0.00000000       62.4134216       2.05688524    
  -1.10500801      -1.55176699      -0.00000000       62.4134216       2.05688524    
   0.00000000       0.00000000       0.00000000       62.4134216       2.05688524    
  -1.00436401      -1.61872697      -0.00000000       62.4134216       2.05688524    
   0.00000000       0.00000000       0.00000000       61.9128113       2.05919504    
  -1.10500801      -1.55176699      -0.00000000       61.9128113       2.05919504    
  -1.15368605      -1.51592600      -0.00000000       61.9128113       2.05919504    
  -1.20120299      -1.47855902      -0.00000000       61.9128113       2.05919504    
 -0.952499986      -1.64977801      -0.00000000       62.8560371       2.05478835    
  -1.00436401      -1.61872697      -0.00000000       62.8560371       2.05478835    
   0.00000000       0.00000000       0.00000000       62.8560371       2.05478835    
 -0.899676025      -1.67916906      -0.00000000       62.8560371       2.05478835    
 -0.735987008      -1.75708497      -0.00000000       63.5055504       2.05165315    
 -0.791365981      -1.73284900      -0.00000000       63.5055504       2.05165315    
   0.00000000       0.00000000       0.00000000       63.5055504       2.05165315    
 -0.679867983      -1.77955198      -0.00000000       63.5055504       2.05165315    
   0.00000000       0.00000000       0.00000000       63.2180328       2.05304933    
 -0.791365981      -1.73284900      -0.00000000       63.2180328       2.05304933    
 -0.845947027      -1.70686805      -0.00000000       63.2180328       2.05304933    
 -0.899676025      -1.67916906      -0.00000000       63.2180328       2.05304933    
 -0.623063982      -1.80022705      -0.00000000       63.7224464       2.05059409    
 -0.679867983      -1.77955198      -0.00000000       63.7224464       2.05059409    
   0.00000000       0.00000000       0.00000000       63.7224464       2.05059409    
 -0.565632999      -1.81908906      -0.00000000       63.7224464       2.05059409    
 -0.390157014      -1.86461902      -0.00000000       63.9894600       2.04929447    
 -0.449120998      -1.85130095      -0.00000000       63.9894600       2.04929447    
   0.00000000       0.00000000       0.00000000       63.9894600       2.04929447    
 -0.330799997      -1.87605906      -0.00000000       63.9894600       2.04929447    
   0.00000000       0.00000000       0.00000000       63.8798752       2.04982424    
 -0.449120998      -1.85130095      -0.00000000       63.8798752       2.04982424    
 -0.507632971      -1.83611906      -0.00000000       63.8798752       2.04982424    
 -0.565632999      -1.81908906      -0.00000000       63.8798752       2.04982424    
 -0.271109998      -1.88560998      -0.00000000       64.0619049       2.04894805    
 -0.330799997      -1.87605906      -0.00000000       64.0619049       2.04894805    
   0.00000000       0.00000000       0.00000000       64.0619049       2.04894805    
 -0.211146995      -1.89326203      -0.00000000       64.0619049       2.04894805    
  -3.02249994E-02  -1.90476000      -0.00000000       64.1247330       2.04865599    
  -9.06440020E-02  -1.90284204      -0.00000000       64.1247330       2.04865599    
   0.00000000       0.00000000       0.00000000       64.1247330       2.04865599    
   3.02249994E-02  -1.90476000      -0.00000000       64.1247330       2.04865599    
   0.00000000       0.00000000       0.00000000       64.1062698       2.04874110    
  -9.06440020E-02  -1.90284204      -0.00000000       64.1062698       2.04874110    
 -0.150970995      -1.89900804      -0.00000000       64.1062698       2.04874110    
 -0.211146995      -1.89326203      -0.00000000       64.1062698       2.04874110    
   9.06440020E-02  -1.90284204      -0.00000000       64.1236343       2.04866457    
   3.02249994E-02  -1.90476000      -0.00000000       64.1236343       2.04866457    
   0.00000000       0.00000000       0.00000000       64.1236343       2.04866457    
  0.150970995      -1.89900804      -0.00000000       64.1236343       2.04866457    
  0.330799997      -1.87605906      -0.00000000       64.0502243       2.04901576    
  0.271109998      -1.88560998      -0.00000000       64.0502243       2.04901576    
   0.00000000       0.00000000       0.00000000       64.0502243       2.04901576    
  0.390157014      -1.86461902      -0.00000000       64.0502243       2.04901576    
   0.00000000       0.00000000       0.00000000       64.1004715       2.04877400    
  0.271109998      -1.88560998      -0.00000000       64.1004715       2.04877400    
  0.211146995      -1.89326203      -0.00000000       64.1004715       2.04877400    
  0.150970995      -1.89900804      -0.00000000       64.1004715       2.04877400    
  0.449120998      -1.85130095      -0.00000000       63.9683189       2.04941249    
  0.390157014      -1.86461902      -0.00000000       63.9683189       2.04941249    
   0.00000000       0.00000000       0.00000000       63.9683189       2.04941249    
  0.507632971      -1.83611906      -0.00000000       63.9683189       2.04941249    
  0.679867983      -1.77955198      -0.00000000       63.6735954       2.05086827    
  0.623063982      -1.80022705      -0.00000000       63.6735954       2.05086827    
   0.00000000       0.00000000       0.00000000       63.6735954       2.05086827    
  0.735987008      -1.75708497      -0.00000000       63.6735954       2.05086827    
   0.00000000       0.00000000       0.00000000       63.8467827       2.05000997    
  0.623063982      -1.80022705      -0.00000000       63.8467827       2.05000997    
  0.565632999      -1.81908906      -0.00000000       63.8467827       2.05000997    
  0.507632971      -1.83611906      -0.00000000       63.8467827       2.05000997    
  0.791365981      -1.73284900      -0.00000000       63.4430428       2.05200791    
  0.735987008      -1.75708497      -0.00000000       63.4430428       2.05200791    
   0.00000000       0.00000000       0.00000000       63.4430428       2.05200791    
  0.845947027      -1.70686805      -0.00000000       63.4430428       2.05200791    
   1.00436401      -1.61872697      -0.00000000       62.7688904       2.05529833    
  0.952499986      -1.64977801      -0.00000000       62.7688904       2.05529833    
   0.00000000       0.00000000       0.00000000       62.7688904       2.05529833    
   1.05521798      -1.58604598      -0.00000000       62.7688904       2.05529833    
   0.00000000       0.00000000       0.00000000       63.1427193       2.05348206    
  0.952499986      -1.64977801      -0.00000000       63.1427193       2.05348206    
  0.899676025      -1.67916906      -0.00000000       63.1427193       2.05348206    
  0.845947027      -1.70686805      -0.00000000       63.1427193       2.05348206    
   1.10500801      -1.55176699      -0.00000000       62.3265724       2.05740213    
   1.05521798      -1.58604598      -0.00000000       62.3265724       2.05740213    
   0.00000000       0.00000000       0.00000000       62.3265724       2.05740213    
   1.15368605      -1.51592600      -0.00000000       62.3265724       2.05740213    
   1.29255998      -1.39939702      -0.00000000       61.3576927       2.06175637    
   1.24750996      -1.43970299      -0.00000000       61.3576927       2.06175637    
   0.00000000       0.00000000       0.00000000       61.3576927       2.06175637    
   1.33631003      -1.35768199      -0.00000000       61.3576927       2.06175637    
   0.00000000       0.00000000       0.00000000       61.8397141       2.05964088    
   1.24750996      -1.43970299      -0.00000000       61.8397141       2.05964088    
   1.20120299      -1.47855902      -0.00000000       61.8397141       2.05964088    