 VARIABLES="X" "Y" "Z" "abs(p) (Pa)" "angle(p) (rad)"
ZONE N=    802,E =     800, F=FEPOINT, ET=QUADRILATERAL
   1.90499997       0.00000000      -0.00000000       234.522842      -1.44129813    
   1.90404105      -6.04420006E-02  -0.00000000       234.522842      -1.44129813    
   0.00000000       0.00000000       0.00000000       234.522842      -1.44129813    
   1.90404105       6.04420006E-02  -0.00000000       234.522842      -1.44129813    
   1.88967395      0.241159007      -0.00000000       234.164825      -1.44119120    
   1.89637399      0.181081995      -0.00000000       234.164825      -1.44119120    
   0.00000000       0.00000000       0.00000000       234.164825      -1.44119120    
   1.88107097      0.300992996      -0.00000000       234.164825      -1.44119120    
   0.00000000       0.00000000       0.00000000       234.474823      -1.44126737    
   1.89637399      0.181081995      -0.00000000       234.474823      -1.44126737    
   1.90116501      0.120823003      -0.00000000       234.474823      -1.44126737    
   1.90404105       6.04420006E-02  -0.00000000       234.474823      -1.44126737    
   1.87057400      0.360523999      -0.00000000       233.734772      -1.44106233    
   1.88107097      0.300992996      -0.00000000       233.734772      -1.44106233    
   0.00000000       0.00000000       0.00000000       233.734772      -1.44106233    
   1.85819399      0.419692010      -0.00000000       233.734772      -1.44106233    
   1.80988598      0.594424009      -0.00000000       233.545090      -1.44053793    
   1.82783401      0.536701024      -0.00000000       233.545090      -1.44053793    
   0.00000000       0.00000000       0.00000000       233.545090      -1.44053793    
   1.79011405      0.651548028      -0.00000000       233.545090      -1.44053793    
   0.00000000       0.00000000       0.00000000       233.488159      -1.44085562    
   1.82783401      0.536701024      -0.00000000       233.488159      -1.44085562    
   1.84394205      0.478437006      -0.00000000       233.488159      -1.44085562    
   1.85819399      0.419692010      -0.00000000       233.488159      -1.44085562    
   1.76854098      0.708016992      -0.00000000       234.176544      -1.44009149    
   1.79011405      0.651548028      -0.00000000       234.176544      -1.44009149    
   0.00000000       0.00000000       0.00000000       234.176544      -1.44009149    
   1.74518704      0.763773024      -0.00000000       234.176544      -1.44009149    
   1.66468298      0.926204979      -0.00000000       237.616562      -1.43871677    
   1.69323206      0.872922003      -0.00000000       237.616562      -1.43871677    
   0.00000000       0.00000000       0.00000000       237.616562      -1.43871677    
   1.63445795      0.978555024      -0.00000000       237.616562      -1.43871677    
   0.00000000       0.00000000       0.00000000       235.566391      -1.43949425    
   1.69323206      0.872922003      -0.00000000       235.566391      -1.43949425    
   1.72007501      0.818759024      -0.00000000       235.566391      -1.43949425    
   1.74518704      0.763773024      -0.00000000       235.566391      -1.43949425    
   1.60258806       1.02992105      -0.00000000       240.080597      -1.43772721    
   1.63445795      0.978555024      -0.00000000       240.080597      -1.43772721    
   0.00000000       0.00000000       0.00000000       240.080597      -1.43772721    
   1.56910396       1.08024895      -0.00000000       240.080597      -1.43772721    
   1.45931494       1.22450995      -0.00000000       243.647903      -1.43498874    
   1.49743104       1.17759299      -0.00000000       243.647903      -1.43498874    
   0.00000000       0.00000000       0.00000000       243.647903      -1.43498874    
   1.41972899       1.27019501      -0.00000000       243.647903      -1.43498874    
   0.00000000       0.00000000       0.00000000       242.480194      -1.43649650    
   1.49743104       1.17759299      -0.00000000       242.480194      -1.43649650    
   1.53403997       1.12949002      -0.00000000       242.480194      -1.43649650    
   1.56910396       1.08024895      -0.00000000       242.480194      -1.43649650    
   1.37871301       1.31459999      -0.00000000       239.188141      -1.43316495    
   1.41972899       1.27019501      -0.00000000       239.188141      -1.43316495    
   0.00000000       0.00000000       0.00000000       239.188141      -1.43316495    
   1.33631003       1.35768199      -0.00000000       239.188141      -1.43316495    
   1.20120299       1.47855902      -0.00000000       201.785095      -1.42738962    
   1.24750996       1.43970299      -0.00000000       201.785095      -1.42738962    
   0.00000000       0.00000000       0.00000000       201.785095      -1.42738962    
   1.15368605       1.51592600      -0.00000000       201.785095      -1.42738962    
   0.00000000       0.00000000       0.00000000       223.356094      -1.43079162    
   1.24750996       1.43970299      -0.00000000       223.356094      -1.43079162    
   1.29255998       1.39939702      -0.00000000       223.356094      -1.43079162    
   1.33631003       1.35768199      -0.00000000       223.356094      -1.43079162    
   1.10500801       1.55176699      -0.00000000       179.336990      -1.42245531    
   1.15368605       1.51592600      -0.00000000       179.336990      -1.42245531    
   0.00000000       0.00000000       0.00000000       179.336990      -1.42245531    
   1.05521798       1.58604598      -0.00000000       179.336990      -1.42245531    
  0.899676025       1.67916906      -0.00000000       136.251617      -1.40521121    
  0.952499986       1.64977801      -0.00000000       136.251617      -1.40521121    
   0.00000000       0.00000000       0.00000000       136.251617      -1.40521121    
  0.845947027       1.70686805      -0.00000000       136.251617      -1.40521121    
   0.00000000       0.00000000       0.00000000       157.342575      -1.41537583    
  0.952499986       1.64977801      -0.00000000       157.342575      -1.41537583    
   1.00436401       1.61872697      -0.00000000       157.342575      -1.41537583    
   1.05521798       1.58604598      -0.00000000       157.342575      -1.41537583    
  0.791365981       1.73284900      -0.00000000       116.311531      -1.39050364    
  0.845947027       1.70686805      -0.00000000       116.311531      -1.39050364    
   0.00000000       0.00000000       0.00000000       116.311531      -1.39050364    
  0.735987008       1.75708497      -0.00000000       116.311531      -1.39050364    
  0.565632999       1.81908906      -0.00000000       79.3418808      -1.33569372    
  0.623063982       1.80022705      -0.00000000       79.3418808      -1.33569372    
   0.00000000       0.00000000       0.00000000       79.3418808      -1.33569372    
  0.507632971       1.83611906      -0.00000000       79.3418808      -1.33569372    
   0.00000000       0.00000000       0.00000000       97.3976669      -1.36883771    
  0.623063982       1.80022705      -0.00000000       97.3976669      -1.36883771    
  0.679867983       1.77955198      -0.00000000       97.3976669      -1.36883771    
  0.735987008       1.75708497      -0.00000000       97.3976669      -1.36883771    
  0.449120998       1.85130095      -0.00000000       62.0538177      -1.28201199    
  0.507632971       1.83611906      -0.00000000       62.0538177      -1.28201199    
   0.00000000       0.00000000       0.00000000       62.0538177      -1.28201199    
  0.390157014       1.86461902      -0.00000000       62.0538177      -1.28201199    
  0.211146995       1.89326203      -0.00000000       30.2664051     -0.987542868    
  0.271109998       1.88560998      -0.00000000       30.2664051     -0.987542868    
   0.00000000       0.00000000       0.00000000       30.2664051     -0.987542868    
  0.150970995       1.89900804      -0.00000000       30.2664051     -0.987542868    
   0.00000000       0.00000000       0.00000000       45.5822716      -1.18674612    
  0.271109998       1.88560998      -0.00000000       45.5822716      -1.18674612    
  0.330799997       1.87605906      -0.00000000       45.5822716      -1.18674612    
  0.390157014       1.86461902      -0.00000000       45.5822716      -1.18674612    
   9.06440020E-02   1.90284204      -0.00000000       18.4459362     -0.472232431    
  0.150970995       1.89900804      -0.00000000       18.4459362     -0.472232431    
   0.00000000       0.00000000       0.00000000       18.4459362     -0.472232431    
   3.02249994E-02   1.90476000      -0.00000000       18.4459362     -0.472232431    
 -0.150970995       1.89900804      -0.00000000       30.1679363      0.993095756    
  -9.06440020E-02   1.90284204      -0.00000000       30.1679363      0.993095756    
   0.00000000       0.00000000       0.00000000       30.1679363      0.993095756    
 -0.211146995       1.89326203      -0.00000000       30.1679363      0.993095756    
   0.00000000       0.00000000       0.00000000       18.4011307      0.474823296    
  -9.06440020E-02   1.90284204      -0.00000000       18.4011307      0.474823296    
  -3.02249994E-02   1.90476000      -0.00000000       18.4011307      0.474823296    
   3.02249994E-02   1.90476000      -0.00000000       18.4011307      0.474823296    
 -0.271109998       1.88560998      -0.00000000       45.4707565       1.19340920    
 -0.211146995       1.89326203      -0.00000000       45.4707565       1.19340920    
   0.00000000       0.00000000       0.00000000       45.4707565       1.19340920    
 -0.330799997       1.87605906      -0.00000000       45.4707565       1.19340920    
 -0.507632971       1.83611906      -0.00000000       79.3541260       1.34269464    
 -0.449120998       1.85130095      -0.00000000       79.3541260       1.34269464    
   0.00000000       0.00000000       0.00000000       79.3541260       1.34269464    
 -0.565632999       1.81908906      -0.00000000       79.3541260       1.34269464    
   0.00000000       0.00000000       0.00000000       61.9869003       1.28908753    
 -0.449120998       1.85130095      -0.00000000       61.9869003       1.28908753    
 -0.390157014       1.86461902      -0.00000000       61.9869003       1.28908753    
 -0.330799997       1.87605906      -0.00000000       61.9869003       1.28908753    
 -0.623063982       1.80022705      -0.00000000       97.4513474       1.37559569    
 -0.565632999       1.81908906      -0.00000000       97.4513474       1.37559569    
   0.00000000       0.00000000       0.00000000       97.4513474       1.37559569    
 -0.679867983       1.77955198      -0.00000000       97.4513474       1.37559569    
 -0.845947027       1.70686805      -0.00000000       136.440155       1.41150451    
 -0.791365981       1.73284900      -0.00000000       136.440155       1.41150451    
   0.00000000       0.00000000       0.00000000       136.440155       1.41150451    
 -0.899676025       1.67916906      -0.00000000       136.440155       1.41150451    
   0.00000000       0.00000000       0.00000000       116.432175       1.39704227    
 -0.791365981       1.73284900      -0.00000000       116.432175       1.39704227    
 -0.735987008       1.75708497      -0.00000000       116.432175       1.39704227    
 -0.679867983       1.77955198      -0.00000000       116.432175       1.39704227    
 -0.952499986       1.64977801      -0.00000000       157.339478       1.42136753    
 -0.899676025       1.67916906      -0.00000000       157.339478       1.42136753    
   0.00000000       0.00000000       0.00000000       157.339478       1.42136753    
  -1.00436401       1.61872697      -0.00000000       157.339478       1.42136753    
  -1.15368605       1.51592600      -0.00000000       200.518967       1.43276644    
  -1.10500801       1.55176699      -0.00000000       200.518967       1.43276644    
   0.00000000       0.00000000       0.00000000       200.518967       1.43276644    
  -1.20120299       1.47855902      -0.00000000       200.518967       1.43276644    
   0.00000000       0.00000000       0.00000000       178.867065       1.42814159    
  -1.10500801       1.55176699      -0.00000000       178.867065       1.42814159    
  -1.05521798       1.58604598      -0.00000000       178.867065       1.42814159    
  -1.00436401       1.61872697      -0.00000000       178.867065       1.42814159    
  -1.24750996       1.43970299      -0.00000000       221.098724       1.43592584    
  -1.20120299       1.47855902      -0.00000000       221.098724       1.43592584    
   0.00000000       0.00000000       0.00000000       221.098724       1.43592584    
  -1.29255998       1.39939702      -0.00000000       221.098724       1.43592584    
  -1.41972899       1.27019501      -0.00000000       240.471848       1.44045901    
  -1.37871301       1.31459999      -0.00000000       240.471848       1.44045901    
   0.00000000       0.00000000       0.00000000       240.471848       1.44045901    
  -1.45931494       1.22450995      -0.00000000       240.471848       1.44045901    
   0.00000000       0.00000000       0.00000000       236.274460       1.43827868    
  -1.37871301       1.31459999      -0.00000000       236.274460       1.43827868    
  -1.33631003       1.35768199      -0.00000000       236.274460       1.43827868    
  -1.29255998       1.39939702      -0.00000000       236.274460       1.43827868    
  -1.49743104       1.17759299      -0.00000000       239.116425       1.44249094    
  -1.45931494       1.22450995      -0.00000000       239.116425       1.44249094    
   0.00000000       0.00000000       0.00000000       239.116425       1.44249094    
  -1.53403997       1.12949002      -0.00000000       239.116425       1.44249094    
  -1.63445795      0.978555024      -0.00000000       234.702698       1.44569218    
  -1.60258806       1.02992105      -0.00000000       234.702698       1.44569218    
   0.00000000       0.00000000       0.00000000       234.702698       1.44569218    
  -1.66468298      0.926204979      -0.00000000       234.702698       1.44569218    
   0.00000000       0.00000000       0.00000000       236.803802       1.44424057    
  -1.60258806       1.02992105      -0.00000000       236.803802       1.44424057    
  -1.56910396       1.08024895      -0.00000000       236.803802       1.44424057    
  -1.53403997       1.12949002      -0.00000000       236.803802       1.44424057    
  -1.69323206      0.872922003      -0.00000000       233.214127       1.44685781    
  -1.66468298      0.926204979      -0.00000000       233.214127       1.44685781    
   0.00000000       0.00000000       0.00000000       233.214127       1.44685781    
  -1.72007501      0.818759024      -0.00000000       233.214127       1.44685781    
  -1.79011405      0.651548028      -0.00000000       232.589157       1.44842184    
  -1.76854098      0.708016992      -0.00000000       232.589157       1.44842184    
   0.00000000       0.00000000       0.00000000       232.589157       1.44842184    
  -1.80988598      0.594424009      -0.00000000       232.589157       1.44842184    
   0.00000000       0.00000000       0.00000000       232.568192       1.44775736    
  -1.76854098      0.708016992      -0.00000000       232.568192       1.44775736    
  -1.74518704      0.763773024      -0.00000000       232.568192       1.44775736    
  -1.72007501      0.818759024      -0.00000000       232.568192       1.44775736    
  -1.82783401      0.536701024      -0.00000000       233.084030       1.44888377    
  -1.80988598      0.594424009      -0.00000000       233.084030       1.44888377    
   0.00000000       0.00000000       0.00000000       233.084030       1.44888377    
  -1.84394205      0.478437006      -0.00000000       233.084030       1.44888377    
  -1.88107097      0.300992996      -0.00000000       234.713028       1.44938862    
  -1.87057400      0.360523999      -0.00000000       234.713028       1.44938862    
   0.00000000       0.00000000       0.00000000       234.713028       1.44938862    
  -1.88967395      0.241159007      -0.00000000       234.713028       1.44938862    
   0.00000000       0.00000000       0.00000000       233.870255       1.44919240    
  -1.87057400      0.360523999      -0.00000000       233.870255       1.44919240    
  -1.85819399      0.419692010      -0.00000000       233.870255       1.44919240    
  -1.84394205      0.478437006      -0.00000000       233.870255       1.44919240    
  -1.89637399      0.181081995      -0.00000000       235.353851       1.44950211    
  -1.88967395      0.241159007      -0.00000000       235.353851       1.44950211    
   0.00000000       0.00000000       0.00000000       235.353851       1.44950211    
  -1.90116501      0.120823003      -0.00000000       235.353851       1.44950211    
  -1.90404105      -6.04420006E-02  -0.00000000       235.744644       1.44953978    
  -1.90499997       0.00000000      -0.00000000       235.744644       1.44953978    
   0.00000000       0.00000000       0.00000000       235.744644       1.44953978    
  -1.90116501     -0.120823003      -0.00000000       235.744644       1.44953978    
   0.00000000       0.00000000       0.00000000       235.668716       1.44955218    
  -1.90499997       0.00000000      -0.00000000       235.668716       1.44955218    
  -1.90404105       6.04420006E-02  -0.00000000       235.668716       1.44955218    
  -1.90116501      0.120823003      -0.00000000       235.668716       1.44955218    
  -1.89637399     -0.181081995      -0.00000000       235.510544       1.44946706    
  -1.90116501     -0.120823003      -0.00000000       235.510544       1.44946706    
   0.00000000       0.00000000       0.00000000       235.510544       1.44946706    
  -1.88967395     -0.241159007      -0.00000000       235.510544       1.44946706    
  -1.85819399     -0.419692010      -0.00000000       234.340088       1.44910491    
  -1.87057400     -0.360523999      -0.00000000       234.340088       1.44910491    
   0.00000000       0.00000000       0.00000000       234.340088       1.44910491    
  -1.84394205     -0.478437006      -0.00000000       234.340088       1.44910491    
   0.00000000       0.00000000       0.00000000       234.981430       1.44933009    
  -1.87057400     -0.360523999      -0.00000000       234.981430       1.44933009    
  -1.88107097     -0.300992996      -0.00000000       234.981430       1.44933009    
  -1.88967395     -0.241159007      -0.00000000       234.981430       1.44933009    
  -1.82783401     -0.536701024      -0.00000000       233.896408       1.44875801    
  -1.84394205     -0.478437006      -0.00000000       233.896408       1.44875801    
   0.00000000       0.00000000       0.00000000       233.896408       1.44875801    
  -1.80988598     -0.594424009      -0.00000000       233.896408       1.44875801    
  -1.74518704     -0.763773024      -0.00000000       234.048157       1.44754171    
  -1.76854098     -0.708016992      -0.00000000       234.048157       1.44754171    
   0.00000000       0.00000000       0.00000000       234.048157       1.44754171    
  -1.72007501     -0.818759024      -0.00000000       234.048157       1.44754171    
   0.00000000       0.00000000       0.00000000       233.723465       1.44824684    
  -1.76854098     -0.708016992      -0.00000000       233.723465       1.44824684    
  -1.79011405     -0.651548028      -0.00000000       233.723465       1.44824684    
  -1.80988598     -0.594424009      -0.00000000       233.723465       1.44824684    
  -1.69323206     -0.872922003      -0.00000000       235.060791       1.44661152    
  -1.72007501     -0.818759024      -0.00000000       235.060791       1.44661152    
   0.00000000       0.00000000       0.00000000       235.060791       1.44661152    
  -1.66468298     -0.926204979      -0.00000000       235.060791       1.44661152    
  -1.56910396      -1.08024895      -0.00000000       238.669205       1.44397390    
  -1.60258806      -1.02992105      -0.00000000       238.669205       1.44397390    
   0.00000000       0.00000000       0.00000000       238.669205       1.44397390    
  -1.53403997      -1.12949002      -0.00000000       238.669205       1.44397390    
   0.00000000       0.00000000       0.00000000       236.686905       1.44542944    
  -1.60258806      -1.02992105      -0.00000000       236.686905       1.44542944    
  -1.63445795     -0.978555024      -0.00000000       236.686905       1.44542944    
  -1.66468298     -0.926204979      -0.00000000       236.686905       1.44542944    
  -1.49743104      -1.17759299      -0.00000000       240.579300       1.44222736    
  -1.53403997      -1.12949002      -0.00000000       240.579300       1.44222736    
   0.00000000       0.00000000       0.00000000       240.579300       1.44222736    
  -1.45931494      -1.22450995      -0.00000000       240.579300       1.44222736    
  -1.33631003      -1.35768199      -0.00000000       236.397186       1.43798387    
  -1.37871301      -1.31459999      -0.00000000       236.397186       1.43798387    
   0.00000000       0.00000000       0.00000000       236.397186       1.43798387    
  -1.29255998      -1.39939702      -0.00000000       236.397186       1.43798387    
   0.00000000       0.00000000       0.00000000       241.263702       1.44019520    
  -1.37871301      -1.31459999      -0.00000000       241.263702       1.44019520    
  -1.41972899      -1.27019501      -0.00000000       241.263702       1.44019520    
  -1.45931494      -1.22450995      -0.00000000       241.263702       1.44019520    
  -1.24750996      -1.43970299      -0.00000000       220.496567       1.43555963    
  -1.29255998      -1.39939702      -0.00000000       220.496567       1.43555963    
   0.00000000       0.00000000       0.00000000       220.496567       1.43555963    
  -1.20120299      -1.47855902      -0.00000000       220.496567       1.43555963    
  -1.05521798      -1.58604598      -0.00000000       176.849960       1.42743528    
  -1.10500801      -1.55176699      -0.00000000       176.849960       1.42743528    
   0.00000000       0.00000000       0.00000000       176.849960       1.42743528    
  -1.00436401      -1.61872697      -0.00000000       176.849960       1.42743528    
   0.00000000       0.00000000       0.00000000       199.092560       1.43226683    
  -1.10500801      -1.55176699      -0.00000000       199.092560       1.43226683    
  -1.15368605      -1.51592600      -0.00000000       199.092560       1.43226683    
  -1.20120299      -1.47855902      -0.00000000       199.092560       1.43226683    
 -0.952499986      -1.64977801      -0.00000000       155.038040       1.42038465    
  -1.00436401      -1.61872697      -0.00000000       155.038040       1.42038465    
   0.00000000       0.00000000       0.00000000       155.038040       1.42038465    
 -0.899676025      -1.67916906      -0.00000000       155.038040       1.42038465    
 -0.735987008      -1.75708497      -0.00000000       114.291786       1.39508069    
 -0.791365981      -1.73284900      -0.00000000       114.291786       1.39508069    
   0.00000000       0.00000000       0.00000000       114.291786       1.39508069    
 -0.679867983      -1.77955198      -0.00000000       114.291786       1.39508069    
   0.00000000       0.00000000       0.00000000       134.104645       1.41011620    
 -0.791365981      -1.73284900      -0.00000000       134.104645       1.41011620    
 -0.845947027      -1.70686805      -0.00000000       134.104645       1.41011620    
 -0.899676025      -1.67916906      -0.00000000       134.104645       1.41011620    
 -0.623063982      -1.80022705      -0.00000000       95.4929733       1.37272716    
 -0.679867983      -1.77955198      -0.00000000       95.4929733       1.37272716    
   0.00000000       0.00000000       0.00000000       95.4929733       1.37272716    
 -0.565632999      -1.81908906      -0.00000000       95.4929733       1.37272716    
 -0.390157014      -1.86461902      -0.00000000       60.3647652       1.28189194    
 -0.449120998      -1.85130095      -0.00000000       60.3647652       1.28189194    
   0.00000000       0.00000000       0.00000000       60.3647652       1.28189194    
 -0.330799997      -1.87605906      -0.00000000       60.3647652       1.28189194    
   0.00000000       0.00000000       0.00000000       77.5489655       1.33825648    
 -0.449120998      -1.85130095      -0.00000000       77.5489655       1.33825648    
 -0.507632971      -1.83611906      -0.00000000       77.5489655       1.33825648    
 -0.565632999      -1.81908906      -0.00000000       77.5489655       1.33825648    
 -0.271109998      -1.88560998      -0.00000000       44.0101242       1.18054211    
 -0.330799997      -1.87605906      -0.00000000       44.0101242       1.18054211    
   0.00000000       0.00000000       0.00000000       44.0101242       1.18054211    
 -0.211146995      -1.89326203      -0.00000000       44.0101242       1.18054211    
  -3.02249994E-02  -1.90476000      -0.00000000       17.7628250      0.398947746    
  -9.06440020E-02  -1.90284204      -0.00000000       17.7628250      0.398947746    
   0.00000000       0.00000000       0.00000000       17.7628250      0.398947746    
   3.02249994E-02  -1.90476000      -0.00000000       17.7628250      0.398947746    
   0.00000000       0.00000000       0.00000000       28.9006977      0.964390337    
  -9.06440020E-02  -1.90284204      -0.00000000       28.9006977      0.964390337    
 -0.150970995      -1.89900804      -0.00000000       28.9006977      0.964390337    
 -0.211146995      -1.89326203      -0.00000000       28.9006977      0.964390337    
   9.06440020E-02  -1.90284204      -0.00000000       19.2014294     -0.542415917    
   3.02249994E-02  -1.90476000      -0.00000000       19.2014294     -0.542415917    
   0.00000000       0.00000000       0.00000000       19.2014294     -0.542415917    
  0.150970995      -1.89900804      -0.00000000       19.2014294     -0.542415917    
  0.330799997      -1.87605906      -0.00000000       47.0900040      -1.19885564    
  0.271109998      -1.88560998      -0.00000000       47.0900040      -1.19885564    
   0.00000000       0.00000000       0.00000000       47.0900040      -1.19885564    
  0.390157014      -1.86461902      -0.00000000       47.0900040      -1.19885564    
   0.00000000       0.00000000       0.00000000       31.5832233      -1.01388967    
  0.271109998      -1.88560998      -0.00000000       31.5832233      -1.01388967    
  0.211146995      -1.89326203      -0.00000000       31.5832233      -1.01388967    
  0.150970995      -1.89900804      -0.00000000       31.5832233      -1.01388967    
  0.449120998      -1.85130095      -0.00000000       63.7376404      -1.28891623    
  0.390157014      -1.86461902      -0.00000000       63.7376404      -1.28891623    
   0.00000000       0.00000000       0.00000000       63.7376404      -1.28891623    
  0.507632971      -1.83611906      -0.00000000       63.7376404      -1.28891623    
  0.679867983      -1.77955198      -0.00000000       99.4627304      -1.37167525    
  0.623063982      -1.80022705      -0.00000000       99.4627304      -1.37167525    
   0.00000000       0.00000000       0.00000000       99.4627304      -1.37167525    
  0.735987008      -1.75708497      -0.00000000       99.4627304      -1.37167525    
   0.00000000       0.00000000       0.00000000       81.2390747      -1.34003210    
  0.623063982      -1.80022705      -0.00000000       81.2390747      -1.34003210    
  0.565632999      -1.81908906      -0.00000000       81.2390747      -1.34003210    
  0.507632971      -1.83611906      -0.00000000       81.2390747      -1.34003210    
  0.791365981      -1.73284900      -0.00000000       118.575233      -1.39247143    
  0.735987008      -1.75708497      -0.00000000       118.575233      -1.39247143    
   0.00000000       0.00000000       0.00000000       118.575233      -1.39247143    
  0.845947027      -1.70686805      -0.00000000       118.575233      -1.39247143    
   1.00436401      -1.61872697      -0.00000000       159.805603      -1.41638696    
  0.952499986      -1.64977801      -0.00000000       159.805603      -1.41638696    
   0.00000000       0.00000000       0.00000000       159.805603      -1.41638696    
   1.05521798      -1.58604598      -0.00000000       159.805603      -1.41638696    
   0.00000000       0.00000000       0.00000000       138.733276      -1.40662622    
  0.952499986      -1.64977801      -0.00000000       138.733276      -1.40662622    
  0.899676025      -1.67916906      -0.00000000       138.733276      -1.40662622    
  0.845947027      -1.70686805      -0.00000000       138.733276      -1.40662622    
   1.10500801      -1.55176699      -0.00000000       181.525238      -1.42318225    
   1.05521798      -1.58604598      -0.00000000       181.525238      -1.42318225    
   0.00000000       0.00000000       0.00000000       181.525238      -1.42318225    
   1.15368605      -1.51592600      -0.00000000       181.525238      -1.42318225    
   1.29255998      -1.39939702      -0.00000000       224.120102      -1.43114269    
   1.24750996      -1.43970299      -0.00000000       224.120102      -1.43114269    
   0.00000000       0.00000000       0.00000000       224.120102      -1.43114269    
   1.33631003      -1.35768199      -0.00000000       224.120102      -1.43114269    
   0.00000000       0.00000000       0.00000000       203.381256      -1.42789114    
   1.24750996      -1.43970299      -0.00000000       203.381256      -1.42789114    
   1.20120299      -1.47855902      -0.00000000       203.381256      -1.42789114    