 VARIABLES="X" "Y" "Z" "abs(p) (Pa)" "angle(p) (rad)"
ZONE N=    802,E =     800, F=FEPOINT, ET=QUADRILATERAL
   1.90499997       0.00000000      -0.00000000       25.2592964       1.66033828    
   1.90404105      -6.04420006E-02  -0.00000000       25.2592964       1.66033828    
   0.00000000       0.00000000       0.00000000       25.2592964       1.66033828    
   1.90404105       6.04420006E-02  -0.00000000       25.2592964       1.66033828    
   1.88967395      0.241159007      -0.00000000       25.2461357       1.66038322    
   1.89637399      0.181081995      -0.00000000       25.2461357       1.66038322    
   0.00000000       0.00000000       0.00000000       25.2461357       1.66038322    
   1.88107097      0.300992996      -0.00000000       25.2461357       1.66038322    
   0.00000000       0.00000000       0.00000000       25.2556019       1.66035104    
   1.89637399      0.181081995      -0.00000000       25.2556019       1.66035104    
   1.90116501      0.120823003      -0.00000000       25.2556019       1.66035104    
   1.90404105       6.04420006E-02  -0.00000000       25.2556019       1.66035104    
   1.87057400      0.360523999      -0.00000000       25.2296944       1.66043985    
   1.88107097      0.300992996      -0.00000000       25.2296944       1.66043985    
   0.00000000       0.00000000       0.00000000       25.2296944       1.66043985    
   1.85819399      0.419692010      -0.00000000       25.2296944       1.66043985    
   1.80988598      0.594424009      -0.00000000       25.1674213       1.66065419    
   1.82783401      0.536701024      -0.00000000       25.1674213       1.66065419    
   0.00000000       0.00000000       0.00000000       25.1674213       1.66065419    
   1.79011405      0.651548028      -0.00000000       25.1674213       1.66065419    
   0.00000000       0.00000000       0.00000000       25.2038383       1.66052866    
   1.82783401      0.536701024      -0.00000000       25.2038383       1.66052866    
   1.84394205      0.478437006      -0.00000000       25.2038383       1.66052866    
   1.85819399      0.419692010      -0.00000000       25.2038383       1.66052866    
   1.76854098      0.708016992      -0.00000000       25.1184978       1.66082311    
   1.79011405      0.651548028      -0.00000000       25.1184978       1.66082311    
   0.00000000       0.00000000       0.00000000       25.1184978       1.66082311    
   1.74518704      0.763773024      -0.00000000       25.1184978       1.66082311    
   1.66468298      0.926204979      -0.00000000       24.9806995       1.66130114    
   1.69323206      0.872922003      -0.00000000       24.9806995       1.66130114    
   0.00000000       0.00000000       0.00000000       24.9806995       1.66130114    
   1.63445795      0.978555024      -0.00000000       24.9806995       1.66130114    
   0.00000000       0.00000000       0.00000000       25.0558758       1.66104007    
   1.69323206      0.872922003      -0.00000000       25.0558758       1.66104007    
   1.72007501      0.818759024      -0.00000000       25.0558758       1.66104007    
   1.74518704      0.763773024      -0.00000000       25.0558758       1.66104007    
   1.60258806       1.02992105      -0.00000000       24.8951721       1.66159916    
   1.63445795      0.978555024      -0.00000000       24.8951721       1.66159916    
   0.00000000       0.00000000       0.00000000       24.8951721       1.66159916    
   1.56910396       1.08024895      -0.00000000       24.8951721       1.66159916    
   1.45931494       1.22450995      -0.00000000       24.7170525       1.66222036    
   1.49743104       1.17759299      -0.00000000       24.7170525       1.66222036    
   0.00000000       0.00000000       0.00000000       24.7170525       1.66222036    
   1.41972899       1.27019501      -0.00000000       24.7170525       1.66222036    
   0.00000000       0.00000000       0.00000000       24.8037510       1.66191816    
   1.49743104       1.17759299      -0.00000000       24.8037510       1.66191816    
   1.53403997       1.12949002      -0.00000000       24.8037510       1.66191816    
   1.56910396       1.08024895      -0.00000000       24.8037510       1.66191816    
   1.37871301       1.31459999      -0.00000000       24.6738186       1.66237032    
   1.41972899       1.27019501      -0.00000000       24.6738186       1.66237032    
   0.00000000       0.00000000       0.00000000       24.6738186       1.66237032    
   1.33631003       1.35768199      -0.00000000       24.6738186       1.66237032    
   1.20120299       1.47855902      -0.00000000       24.8188801       1.66186368    
   1.24750996       1.43970299      -0.00000000       24.8188801       1.66186368    
   0.00000000       0.00000000       0.00000000       24.8188801       1.66186368    
   1.15368605       1.51592600      -0.00000000       24.8188801       1.66186368    
   0.00000000       0.00000000       0.00000000       24.7240067       1.66219485    
   1.24750996       1.43970299      -0.00000000       24.7240067       1.66219485    
   1.29255998       1.39939702      -0.00000000       24.7240067       1.66219485    
   1.33631003       1.35768199      -0.00000000       24.7240067       1.66219485    
   1.10500801       1.55176699      -0.00000000       24.9164677       1.66152346    
   1.15368605       1.51592600      -0.00000000       24.9164677       1.66152346    
   0.00000000       0.00000000       0.00000000       24.9164677       1.66152346    
   1.05521798       1.58604598      -0.00000000       24.9164677       1.66152346    
  0.899676025       1.67916906      -0.00000000       25.0820236       1.66094851    
  0.952499986       1.64977801      -0.00000000       25.0820236       1.66094851    
   0.00000000       0.00000000       0.00000000       25.0820236       1.66094851    
  0.845947027       1.70686805      -0.00000000       25.0820236       1.66094851    
   0.00000000       0.00000000       0.00000000       25.0054684       1.66121399    
  0.952499986       1.64977801      -0.00000000       25.0054684       1.66121399    
   1.00436401       1.61872697      -0.00000000       25.0054684       1.66121399    
   1.05521798       1.58604598      -0.00000000       25.0054684       1.66121399    
  0.791365981       1.73284900      -0.00000000       25.1438370       1.66073477    
  0.845947027       1.70686805      -0.00000000       25.1438370       1.66073477    
   0.00000000       0.00000000       0.00000000       25.1438370       1.66073477    
  0.735987008       1.75708497      -0.00000000       25.1438370       1.66073477    
  0.565632999       1.81908906      -0.00000000       25.2284870       1.66044343    
  0.623063982       1.80022705      -0.00000000       25.2284870       1.66044343    
   0.00000000       0.00000000       0.00000000       25.2284870       1.66044343    
  0.507632971       1.83611906      -0.00000000       25.2284870       1.66044343    
   0.00000000       0.00000000       0.00000000       25.1922607       1.66056788    
  0.623063982       1.80022705      -0.00000000       25.1922607       1.66056788    
  0.679867983       1.77955198      -0.00000000       25.1922607       1.66056788    
  0.735987008       1.75708497      -0.00000000       25.1922607       1.66056788    
  0.449120998       1.85130095      -0.00000000       25.2541771       1.66035545    
  0.507632971       1.83611906      -0.00000000       25.2541771       1.66035545    
   0.00000000       0.00000000       0.00000000       25.2541771       1.66035545    
  0.390157014       1.86461902      -0.00000000       25.2541771       1.66035545    
  0.211146995       1.89326203      -0.00000000       25.2820263       1.66026020    
  0.271109998       1.88560998      -0.00000000       25.2820263       1.66026020    
   0.00000000       0.00000000       0.00000000       25.2820263       1.66026020    
  0.150970995       1.89900804      -0.00000000       25.2820263       1.66026020    
   0.00000000       0.00000000       0.00000000       25.2713013       1.66029680    
  0.271109998       1.88560998      -0.00000000       25.2713013       1.66029680    
  0.330799997       1.87605906      -0.00000000       25.2713013       1.66029680    
  0.390157014       1.86461902      -0.00000000       25.2713013       1.66029680    
   9.06440020E-02   1.90284204      -0.00000000       25.2874832       1.66024172    
  0.150970995       1.89900804      -0.00000000       25.2874832       1.66024172    
   0.00000000       0.00000000       0.00000000       25.2874832       1.66024172    
   3.02249994E-02   1.90476000      -0.00000000       25.2874832       1.66024172    
 -0.150970995       1.89900804      -0.00000000       25.2808304       1.66026425    
  -9.06440020E-02   1.90284204      -0.00000000       25.2808304       1.66026425    
   0.00000000       0.00000000       0.00000000       25.2808304       1.66026425    
 -0.211146995       1.89326203      -0.00000000       25.2808304       1.66026425    
   0.00000000       0.00000000       0.00000000       25.2868404       1.66024387    
  -9.06440020E-02   1.90284204      -0.00000000       25.2868404       1.66024387    
  -3.02249994E-02   1.90476000      -0.00000000       25.2868404       1.66024387    
   3.02249994E-02   1.90476000      -0.00000000       25.2868404       1.66024387    
 -0.271109998       1.88560998      -0.00000000       25.2693081       1.66030383    
 -0.211146995       1.89326203      -0.00000000       25.2693081       1.66030383    
   0.00000000       0.00000000       0.00000000       25.2693081       1.66030383    
 -0.330799997       1.87605906      -0.00000000       25.2693081       1.66030383    
 -0.507632971       1.83611906      -0.00000000       25.2223854       1.66046441    
 -0.449120998       1.85130095      -0.00000000       25.2223854       1.66046441    
   0.00000000       0.00000000       0.00000000       25.2223854       1.66046441    
 -0.565632999       1.81908906      -0.00000000       25.2223854       1.66046441    
   0.00000000       0.00000000       0.00000000       25.2507019       1.66036737    
 -0.449120998       1.85130095      -0.00000000       25.2507019       1.66036737    
 -0.390157014       1.86461902      -0.00000000       25.2507019       1.66036737    
 -0.330799997       1.87605906      -0.00000000       25.2507019       1.66036737    
 -0.623063982       1.80022705      -0.00000000       25.1835346       1.66059828    
 -0.565632999       1.81908906      -0.00000000       25.1835346       1.66059828    
   0.00000000       0.00000000       0.00000000       25.1835346       1.66059828    
 -0.679867983       1.77955198      -0.00000000       25.1835346       1.66059828    
 -0.845947027       1.70686805      -0.00000000       25.0681095       1.66099715    
 -0.791365981       1.73284900      -0.00000000       25.0681095       1.66099715    
   0.00000000       0.00000000       0.00000000       25.0681095       1.66099715    
 -0.899676025       1.67916906      -0.00000000       25.0681095       1.66099715    
   0.00000000       0.00000000       0.00000000       25.1325741       1.66077399    
 -0.791365981       1.73284900      -0.00000000       25.1325741       1.66077399    
 -0.735987008       1.75708497      -0.00000000       25.1325741       1.66077399    
 -0.679867983       1.77955198      -0.00000000       25.1325741       1.66077399    
 -0.952499986       1.64977801      -0.00000000       24.9912643       1.66126406    
 -0.899676025       1.67916906      -0.00000000       24.9912643       1.66126406    
   0.00000000       0.00000000       0.00000000       24.9912643       1.66126406    
  -1.00436401       1.61872697      -0.00000000       24.9912643       1.66126406    
  -1.15368605       1.51592600      -0.00000000       24.8115082       1.66189015    
  -1.10500801       1.55176699      -0.00000000       24.8115082       1.66189015    
   0.00000000       0.00000000       0.00000000       24.8115082       1.66189015    
  -1.20120299       1.47855902      -0.00000000       24.8115082       1.66189015    
   0.00000000       0.00000000       0.00000000       24.9043198       1.66156662    
  -1.10500801       1.55176699      -0.00000000       24.9043198       1.66156662    
  -1.05521798       1.58604598      -0.00000000       24.9043198       1.66156662    
  -1.00436401       1.61872697      -0.00000000       24.9043198       1.66156662    
  -1.24750996       1.43970299      -0.00000000       24.7236366       1.66219652    
  -1.20120299       1.47855902      -0.00000000       24.7236366       1.66219652    
   0.00000000       0.00000000       0.00000000       24.7236366       1.66219652    
  -1.29255998       1.39939702      -0.00000000       24.7236366       1.66219652    
  -1.41972899       1.27019501      -0.00000000       24.7296143       1.66217458    
  -1.37871301       1.31459999      -0.00000000       24.7296143       1.66217458    
   0.00000000       0.00000000       0.00000000       24.7296143       1.66217458    
  -1.45931494       1.22450995      -0.00000000       24.7296143       1.66217458    
   0.00000000       0.00000000       0.00000000       24.6797638       1.66234899    
  -1.37871301       1.31459999      -0.00000000       24.6797638       1.66234899    
  -1.33631003       1.35768199      -0.00000000       24.6797638       1.66234899    
  -1.29255998       1.39939702      -0.00000000       24.6797638       1.66234899    
  -1.49743104       1.17759299      -0.00000000       24.8239670       1.66184556    
  -1.45931494       1.22450995      -0.00000000       24.8239670       1.66184556    
   0.00000000       0.00000000       0.00000000       24.8239670       1.66184556    
  -1.53403997       1.12949002      -0.00000000       24.8239670       1.66184556    
  -1.63445795      0.978555024      -0.00000000       25.0096550       1.66119897    
  -1.60258806       1.02992105      -0.00000000       25.0096550       1.66119897    
   0.00000000       0.00000000       0.00000000       25.0096550       1.66119897    
  -1.66468298      0.926204979      -0.00000000       25.0096550       1.66119897    
   0.00000000       0.00000000       0.00000000       24.9210567       1.66150713    
  -1.60258806       1.02992105      -0.00000000       24.9210567       1.66150713    
  -1.56910396       1.08024895      -0.00000000       24.9210567       1.66150713    
  -1.53403997       1.12949002      -0.00000000       24.9210567       1.66150713    
  -1.69323206      0.872922003      -0.00000000       25.0858517       1.66093493    
  -1.66468298      0.926204979      -0.00000000       25.0858517       1.66093493    
   0.00000000       0.00000000       0.00000000       25.0858517       1.66093493    
  -1.72007501      0.818759024      -0.00000000       25.0858517       1.66093493    
  -1.79011405      0.651548028      -0.00000000       25.1954823       1.66055679    
  -1.76854098      0.708016992      -0.00000000       25.1954823       1.66055679    
   0.00000000       0.00000000       0.00000000       25.1954823       1.66055679    
  -1.80988598      0.594424009      -0.00000000       25.1954823       1.66055679    
   0.00000000       0.00000000       0.00000000       25.1473866       1.66072237    
  -1.76854098      0.708016992      -0.00000000       25.1473866       1.66072237    
  -1.74518704      0.763773024      -0.00000000       25.1473866       1.66072237    
  -1.72007501      0.818759024      -0.00000000       25.1473866       1.66072237    
  -1.82783401      0.536701024      -0.00000000       25.2313805       1.66043341    
  -1.80988598      0.594424009      -0.00000000       25.2313805       1.66043341    
   0.00000000       0.00000000       0.00000000       25.2313805       1.66043341    
  -1.84394205      0.478437006      -0.00000000       25.2313805       1.66043341    
  -1.88107097      0.300992996      -0.00000000       25.2737579       1.66028833    
  -1.87057400      0.360523999      -0.00000000       25.2737579       1.66028833    
   0.00000000       0.00000000       0.00000000       25.2737579       1.66028833    
  -1.88967395      0.241159007      -0.00000000       25.2737579       1.66028833    
   0.00000000       0.00000000       0.00000000       25.2567997       1.66034627    
  -1.87057400      0.360523999      -0.00000000       25.2567997       1.66034627    
  -1.85819399      0.419692010      -0.00000000       25.2567997       1.66034627    
  -1.84394205      0.478437006      -0.00000000       25.2567997       1.66034627    
  -1.89637399      0.181081995      -0.00000000       25.2843189       1.66025245    
  -1.88967395      0.241159007      -0.00000000       25.2843189       1.66025245    
   0.00000000       0.00000000       0.00000000       25.2843189       1.66025245    
  -1.90116501      0.120823003      -0.00000000       25.2843189       1.66025245    
  -1.90404105      -6.04420006E-02  -0.00000000       25.2888947       1.66023672    
  -1.90499997       0.00000000      -0.00000000       25.2888947       1.66023672    
   0.00000000       0.00000000       0.00000000       25.2888947       1.66023672    
  -1.90116501     -0.120823003      -0.00000000       25.2888947       1.66023672    
   0.00000000       0.00000000       0.00000000       25.2896290       1.66023421    
  -1.90499997       0.00000000      -0.00000000       25.2896290       1.66023421    
  -1.90404105       6.04420006E-02  -0.00000000       25.2896290       1.66023421    
  -1.90116501      0.120823003      -0.00000000       25.2896290       1.66023421    
  -1.89637399     -0.181081995      -0.00000000       25.2827320       1.66025782    
  -1.90116501     -0.120823003      -0.00000000       25.2827320       1.66025782    
   0.00000000       0.00000000       0.00000000       25.2827320       1.66025782    
  -1.88967395     -0.241159007      -0.00000000       25.2827320       1.66025782    
  -1.85819399     -0.419692010      -0.00000000       25.2522717       1.66036189    
  -1.87057400     -0.360523999      -0.00000000       25.2522717       1.66036189    
   0.00000000       0.00000000       0.00000000       25.2522717       1.66036189    
  -1.84394205     -0.478437006      -0.00000000       25.2522717       1.66036189    
   0.00000000       0.00000000       0.00000000       25.2710953       1.66029751    
  -1.87057400     -0.360523999      -0.00000000       25.2710953       1.66029751    
  -1.88107097     -0.300992996      -0.00000000       25.2710953       1.66029751    
  -1.88967395     -0.241159007      -0.00000000       25.2710953       1.66029751    
  -1.82783401     -0.536701024      -0.00000000       25.2237606       1.66045988    
  -1.84394205     -0.478437006      -0.00000000       25.2237606       1.66045988    
   0.00000000       0.00000000       0.00000000       25.2237606       1.66045988    
  -1.80988598     -0.594424009      -0.00000000       25.2237606       1.66045988    
  -1.74518704     -0.763773024      -0.00000000       25.1335258       1.66077077    
  -1.76854098     -0.708016992      -0.00000000       25.1335258       1.66077077    
   0.00000000       0.00000000       0.00000000       25.1335258       1.66077077    
  -1.72007501     -0.818759024      -0.00000000       25.1335258       1.66077077    
   0.00000000       0.00000000       0.00000000       25.1847000       1.66059411    
  -1.76854098     -0.708016992      -0.00000000       25.1847000       1.66059411    
  -1.79011405     -0.651548028      -0.00000000       25.1847000       1.66059411    
  -1.80988598     -0.594424009      -0.00000000       25.1847000       1.66059411    
  -1.69323206     -0.872922003      -0.00000000       25.0688381       1.66099465    
  -1.72007501     -0.818759024      -0.00000000       25.0688381       1.66099465    
   0.00000000       0.00000000       0.00000000       25.0688381       1.66099465    
  -1.66468298     -0.926204979      -0.00000000       25.0688381       1.66099465    
  -1.56910396      -1.08024895      -0.00000000       24.9045086       1.66156578    
  -1.60258806      -1.02992105      -0.00000000       24.9045086       1.66156578    
   0.00000000       0.00000000       0.00000000       24.9045086       1.66156578    
  -1.53403997      -1.12949002      -0.00000000       24.9045086       1.66156578    
   0.00000000       0.00000000       0.00000000       24.9916973       1.66126227    
  -1.60258806      -1.02992105      -0.00000000       24.9916973       1.66126227    
  -1.63445795     -0.978555024      -0.00000000       24.9916973       1.66126227    
  -1.66468298     -0.926204979      -0.00000000       24.9916973       1.66126227    
  -1.49743104      -1.17759299      -0.00000000       24.8113899       1.66189051    
  -1.53403997      -1.12949002      -0.00000000       24.8113899       1.66189051    
   0.00000000       0.00000000       0.00000000       24.8113899       1.66189051    
  -1.45931494      -1.22450995      -0.00000000       24.8113899       1.66189051    
  -1.33631003      -1.35768199      -0.00000000       24.6794701       1.66234982    
  -1.37871301      -1.31459999      -0.00000000       24.6794701       1.66234982    
   0.00000000       0.00000000       0.00000000       24.6794701       1.66234982    
  -1.29255998      -1.39939702      -0.00000000       24.6794701       1.66234982    
   0.00000000       0.00000000       0.00000000       24.7232761       1.66219771    
  -1.37871301      -1.31459999      -0.00000000       24.7232761       1.66219771    
  -1.41972899      -1.27019501      -0.00000000       24.7232761       1.66219771    
  -1.45931494      -1.22450995      -0.00000000       24.7232761       1.66219771    
  -1.24750996      -1.43970299      -0.00000000       24.7293148       1.66217577    
  -1.29255998      -1.39939702      -0.00000000       24.7293148       1.66217577    
   0.00000000       0.00000000       0.00000000       24.7293148       1.66217577    
  -1.20120299      -1.47855902      -0.00000000       24.7293148       1.66217577    
  -1.05521798      -1.58604598      -0.00000000       24.9202805       1.66150987    
  -1.10500801      -1.55176699      -0.00000000       24.9202805       1.66150987    
   0.00000000       0.00000000       0.00000000       24.9202805       1.66150987    
  -1.00436401      -1.61872697      -0.00000000       24.9202805       1.66150987    
   0.00000000       0.00000000       0.00000000       24.8235416       1.66184711    
  -1.10500801      -1.55176699      -0.00000000       24.8235416       1.66184711    
  -1.15368605      -1.51592600      -0.00000000       24.8235416       1.66184711    
  -1.20120299      -1.47855902      -0.00000000       24.8235416       1.66184711    
 -0.952499986      -1.64977801      -0.00000000       25.0086212       1.66120291    
  -1.00436401      -1.61872697      -0.00000000       25.0086212       1.66120291    
   0.00000000       0.00000000       0.00000000       25.0086212       1.66120291    
 -0.899676025      -1.67916906      -0.00000000       25.0086212       1.66120291    
 -0.735987008      -1.75708497      -0.00000000       25.1459293       1.66072750    
 -0.791365981      -1.73284900      -0.00000000       25.1459293       1.66072750    
   0.00000000       0.00000000       0.00000000       25.1459293       1.66072750    
 -0.679867983      -1.77955198      -0.00000000       25.1459293       1.66072750    
   0.00000000       0.00000000       0.00000000       25.0846081       1.66093946    
 -0.791365981      -1.73284900      -0.00000000       25.0846081       1.66093946    
 -0.845947027      -1.70686805      -0.00000000       25.0846081       1.66093946    
 -0.899676025      -1.67916906      -0.00000000       25.0846081       1.66093946    
 -0.623063982      -1.80022705      -0.00000000       25.1937923       1.66056252    
 -0.679867983      -1.77955198      -0.00000000       25.1937923       1.66056252    
   0.00000000       0.00000000       0.00000000       25.1937923       1.66056252    
 -0.565632999      -1.81908906      -0.00000000       25.1937923       1.66056252    
 -0.390157014      -1.86461902      -0.00000000       25.2547913       1.66035318    
 -0.449120998      -1.85130095      -0.00000000       25.2547913       1.66035318    
   0.00000000       0.00000000       0.00000000       25.2547913       1.66035318    
 -0.330799997      -1.87605906      -0.00000000       25.2547913       1.66035318    
   0.00000000       0.00000000       0.00000000       25.2294827       1.66043997    
 -0.449120998      -1.85130095      -0.00000000       25.2294827       1.66043997    
 -0.507632971      -1.83611906      -0.00000000       25.2294827       1.66043997    
 -0.565632999      -1.81908906      -0.00000000       25.2294827       1.66043997    
 -0.271109998      -1.88560998      -0.00000000       25.2715607       1.66029584    
 -0.330799997      -1.87605906      -0.00000000       25.2715607       1.66029584    
   0.00000000       0.00000000       0.00000000       25.2715607       1.66029584    
 -0.211146995      -1.89326203      -0.00000000       25.2715607       1.66029584    
  -3.02249994E-02  -1.90476000      -0.00000000       25.2871723       1.66024268    
  -9.06440020E-02  -1.90284204      -0.00000000       25.2871723       1.66024268    
   0.00000000       0.00000000       0.00000000       25.2871723       1.66024268    
   3.02249994E-02  -1.90476000      -0.00000000       25.2871723       1.66024268    
   0.00000000       0.00000000       0.00000000       25.2819901       1.66026044    
  -9.06440020E-02  -1.90284204      -0.00000000       25.2819901       1.66026044    
 -0.150970995      -1.89900804      -0.00000000       25.2819901       1.66026044    
 -0.211146995      -1.89326203      -0.00000000       25.2819901       1.66026044    
   9.06440020E-02  -1.90284204      -0.00000000       25.2863064       1.66024578    
   3.02249994E-02  -1.90476000      -0.00000000       25.2863064       1.66024578    
   0.00000000       0.00000000       0.00000000       25.2863064       1.66024578    
  0.150970995      -1.89900804      -0.00000000       25.2863064       1.66024578    
  0.330799997      -1.87605906      -0.00000000       25.2681942       1.66030765    
  0.271109998      -1.88560998      -0.00000000       25.2681942       1.66030765    
   0.00000000       0.00000000       0.00000000       25.2681942       1.66030765    
  0.390157014      -1.86461902      -0.00000000       25.2681942       1.66030765    
   0.00000000       0.00000000       0.00000000       25.2800446       1.66026711    
  0.271109998      -1.88560998      -0.00000000       25.2800446       1.66026711    
  0.211146995      -1.89326203      -0.00000000       25.2800446       1.66026711    
  0.150970995      -1.89900804      -0.00000000       25.2800446       1.66026711    
  0.449120998      -1.85130095      -0.00000000       25.2491207       1.66037273    
  0.390157014      -1.86461902      -0.00000000       25.2491207       1.66037273    
   0.00000000       0.00000000       0.00000000       25.2491207       1.66037273    
  0.507632971      -1.83611906      -0.00000000       25.2491207       1.66037273    
  0.679867983      -1.77955198      -0.00000000       25.1808720       1.66060746    
  0.623063982      -1.80022705      -0.00000000       25.1808720       1.66060746    
   0.00000000       0.00000000       0.00000000       25.1808720       1.66060746    
  0.735987008      -1.75708497      -0.00000000       25.1808720       1.66060746    
   0.00000000       0.00000000       0.00000000       25.2202168       1.66047215    
  0.623063982      -1.80022705      -0.00000000       25.2202168       1.66047215    
  0.565632999      -1.81908906      -0.00000000       25.2202168       1.66047215    
  0.507632971      -1.83611906      -0.00000000       25.2202168       1.66047215    
  0.791365981      -1.73284900      -0.00000000       25.1293221       1.66078532    
  0.735987008      -1.75708497      -0.00000000       25.1293221       1.66078532    
   0.00000000       0.00000000       0.00000000       25.1293221       1.66078532    
  0.845947027      -1.70686805      -0.00000000       25.1293221       1.66078532    
   1.00436401      -1.61872697      -0.00000000       24.9867020       1.66128004    
  0.952499986      -1.64977801      -0.00000000       24.9867020       1.66128004    
   0.00000000       0.00000000       0.00000000       24.9867020       1.66128004    
   1.05521798      -1.58604598      -0.00000000       24.9867020       1.66128004    
   0.00000000       0.00000000       0.00000000       25.0642700       1.66101050    
  0.952499986      -1.64977801      -0.00000000       25.0642700       1.66101050    
  0.899676025      -1.67916906      -0.00000000       25.0642700       1.66101050    
  0.845947027      -1.70686805      -0.00000000       25.0642700       1.66101050    
   1.10500801      -1.55176699      -0.00000000       24.8989964       1.66158545    
   1.05521798      -1.58604598      -0.00000000       24.8989964       1.66158545    
   0.00000000       0.00000000       0.00000000       24.8989964       1.66158545    
   1.15368605      -1.51592600      -0.00000000       24.8989964       1.66158545    
   1.29255998      -1.39939702      -0.00000000       24.7165432       1.66222191    
   1.24750996      -1.43970299      -0.00000000       24.7165432       1.66222191    
   0.00000000       0.00000000       0.00000000       24.7165432       1.66222191    
   1.33631003      -1.35768199      -0.00000000       24.7165432       1.66222191    
   0.00000000       0.00000000       0.00000000       24.8052578       1.66191232    
   1.24750996      -1.43970299      -0.00000000       24.8052578       1.66191232    
   1.20120299      -1.47855902      -0.00000000       24.8052578       1.66191232    