 VARIABLES="X" "Y" "Z" "abs(p) (Pa)" "angle(p) (rad)"
ZONE N=    802,E =     800, F=FEPOINT, ET=QUADRILATERAL
   1.90499997       0.00000000      -0.00000000       296.868530       1.57581294    
   1.90404105      -6.04420006E-02  -0.00000000       296.868530       1.57581294    
   0.00000000       0.00000000       0.00000000       296.868530       1.57581294    
   1.90404105       6.04420006E-02  -0.00000000       296.868530       1.57581294    
   1.88967395      0.241159007      -0.00000000       296.411346       1.57578659    
   1.89637399      0.181081995      -0.00000000       296.411346       1.57578659    
   0.00000000       0.00000000       0.00000000       296.411346       1.57578659    
   1.88107097      0.300992996      -0.00000000       296.411346       1.57578659    
   0.00000000       0.00000000       0.00000000       296.806091       1.57580531    
   1.89637399      0.181081995      -0.00000000       296.806091       1.57580531    
   1.90116501      0.120823003      -0.00000000       296.806091       1.57580531    
   1.90404105       6.04420006E-02  -0.00000000       296.806091       1.57580531    
   1.87057400      0.360523999      -0.00000000       295.860962       1.57575345    
   1.88107097      0.300992996      -0.00000000       295.860962       1.57575345    
   0.00000000       0.00000000       0.00000000       295.860962       1.57575345    
   1.85819399      0.419692010      -0.00000000       295.860962       1.57575345    
   1.80988598      0.594424009      -0.00000000       295.571136       1.57561195    
   1.82783401      0.536701024      -0.00000000       295.571136       1.57561195    
   0.00000000       0.00000000       0.00000000       295.571136       1.57561195    
   1.79011405      0.651548028      -0.00000000       295.571136       1.57561195    
   0.00000000       0.00000000       0.00000000       295.531097       1.57569623    
   1.82783401      0.536701024      -0.00000000       295.531097       1.57569623    
   1.84394205      0.478437006      -0.00000000       295.531097       1.57569623    
   1.85819399      0.419692010      -0.00000000       295.531097       1.57569623    
   1.76854098      0.708016992      -0.00000000       296.315338       1.57549286    
   1.79011405      0.651548028      -0.00000000       296.315338       1.57549286    
   0.00000000       0.00000000       0.00000000       296.315338       1.57549286    
   1.74518704      0.763773024      -0.00000000       296.315338       1.57549286    
   1.66468298      0.926204979      -0.00000000       300.484436       1.57514143    
   1.69323206      0.872922003      -0.00000000       300.484436       1.57514143    
   0.00000000       0.00000000       0.00000000       300.484436       1.57514143    
   1.63445795      0.978555024      -0.00000000       300.484436       1.57514143    
   0.00000000       0.00000000       0.00000000       297.994476       1.57533455    
   1.69323206      0.872922003      -0.00000000       297.994476       1.57533455    
   1.72007501      0.818759024      -0.00000000       297.994476       1.57533455    
   1.74518704      0.763773024      -0.00000000       297.994476       1.57533455    
   1.60258806       1.02992105      -0.00000000       303.482391       1.57492137    
   1.63445795      0.978555024      -0.00000000       303.482391       1.57492137    
   0.00000000       0.00000000       0.00000000       303.482391       1.57492137    
   1.56910396       1.08024895      -0.00000000       303.482391       1.57492137    
   1.45931494       1.22450995      -0.00000000       307.773071       1.57446969    
   1.49743104       1.17759299      -0.00000000       307.773071       1.57446969    
   0.00000000       0.00000000       0.00000000       307.773071       1.57446969    
   1.41972899       1.27019501      -0.00000000       307.773071       1.57446969    
   0.00000000       0.00000000       0.00000000       306.395111       1.57468736    
   1.49743104       1.17759299      -0.00000000       306.395111       1.57468736    
   1.53403997       1.12949002      -0.00000000       306.395111       1.57468736    
   1.56910396       1.08024895      -0.00000000       306.395111       1.57468736    
   1.37871301       1.31459999      -0.00000000       302.161377       1.57437932    
   1.41972899       1.27019501      -0.00000000       302.161377       1.57437932    
   0.00000000       0.00000000       0.00000000       302.161377       1.57437932    
   1.33631003       1.35768199      -0.00000000       302.161377       1.57437932    
   1.20120299       1.47855902      -0.00000000       255.559677       1.57498956    
   1.24750996       1.43970299      -0.00000000       255.559677       1.57498956    
   0.00000000       0.00000000       0.00000000       255.559677       1.57498956    
   1.15368605       1.51592600      -0.00000000       255.559677       1.57498956    
   0.00000000       0.00000000       0.00000000       282.427063       1.57458353    
   1.24750996       1.43970299      -0.00000000       282.427063       1.57458353    
   1.29255998       1.39939702      -0.00000000       282.427063       1.57458353    
   1.33631003       1.35768199      -0.00000000       282.427063       1.57458353    
   1.10500801       1.55176699      -0.00000000       227.588120       1.57550669    
   1.15368605       1.51592600      -0.00000000       227.588120       1.57550669    
   0.00000000       0.00000000       0.00000000       227.588120       1.57550669    
   1.05521798       1.58604598      -0.00000000       227.588120       1.57550669    
  0.899676025       1.67916906      -0.00000000       173.816757       1.57687080    
  0.952499986       1.64977801      -0.00000000       173.816757       1.57687080    
   0.00000000       0.00000000       0.00000000       173.816757       1.57687080    
  0.845947027       1.70686805      -0.00000000       173.816757       1.57687080    
   0.00000000       0.00000000       0.00000000       200.158005       1.57612705    
  0.952499986       1.64977801      -0.00000000       200.158005       1.57612705    
   1.00436401       1.61872697      -0.00000000       200.158005       1.57612705    
   1.05521798       1.58604598      -0.00000000       200.158005       1.57612705    
  0.791365981       1.73284900      -0.00000000       148.855667       1.57777286    
  0.845947027       1.70686805      -0.00000000       148.855667       1.57777286    
   0.00000000       0.00000000       0.00000000       148.855667       1.57777286    
  0.735987008       1.75708497      -0.00000000       148.855667       1.57777286    
  0.565632999       1.81908906      -0.00000000       102.277229       1.58047211    
  0.623063982       1.80022705      -0.00000000       102.277229       1.58047211    
   0.00000000       0.00000000       0.00000000       102.277229       1.58047211    
  0.507632971       1.83611906      -0.00000000       102.277229       1.58047211    
   0.00000000       0.00000000       0.00000000       125.094536       1.57891941    
  0.623063982       1.80022705      -0.00000000       125.094536       1.57891941    
  0.679867983       1.77955198      -0.00000000       125.094536       1.57891941    
  0.735987008       1.75708497      -0.00000000       125.094536       1.57891941    
  0.449120998       1.85130095      -0.00000000       80.1957245       1.58276606    
  0.507632971       1.83611906      -0.00000000       80.1957245       1.58276606    
   0.00000000       0.00000000       0.00000000       80.1957245       1.58276606    
  0.390157014       1.86461902      -0.00000000       80.1957245       1.58276606    
  0.211146995       1.89326203      -0.00000000       37.4582939       1.59467864    
  0.271109998       1.88560998      -0.00000000       37.4582939       1.59467864    
   0.00000000       0.00000000       0.00000000       37.4582939       1.59467864    
  0.150970995       1.89900804      -0.00000000       37.4582939       1.59467864    
   0.00000000       0.00000000       0.00000000       58.6852150       1.58660841    
  0.271109998       1.88560998      -0.00000000       58.6852150       1.58660841    
  0.330799997       1.87605906      -0.00000000       58.6852150       1.58660841    
  0.390157014       1.86461902      -0.00000000       58.6852150       1.58660841    
   9.06440020E-02   1.90284204      -0.00000000       16.4008904       1.62327302    
  0.150970995       1.89900804      -0.00000000       16.4008904       1.62327302    
   0.00000000       0.00000000       0.00000000       16.4008904       1.62327302    
   3.02249994E-02   1.90476000      -0.00000000       16.4008904       1.62327302    
 -0.150970995       1.89900804      -0.00000000       25.6695766      -1.60161781    
  -9.06440020E-02   1.90284204      -0.00000000       25.6695766      -1.60161781    
   0.00000000       0.00000000       0.00000000       25.6695766      -1.60161781    
 -0.211146995       1.89326203      -0.00000000       25.6695766      -1.60161781    
   0.00000000       0.00000000       0.00000000       4.67736006      -1.74824083    
  -9.06440020E-02   1.90284204      -0.00000000       4.67736006      -1.74824083    
  -3.02249994E-02   1.90476000      -0.00000000       4.67736006      -1.74824083    
   3.02249994E-02   1.90476000      -0.00000000       4.67736006      -1.74824083    
 -0.271109998       1.88560998      -0.00000000       46.8927994      -1.58694470    
 -0.211146995       1.89326203      -0.00000000       46.8927994      -1.58694470    
   0.00000000       0.00000000       0.00000000       46.8927994      -1.58694470    
 -0.330799997       1.87605906      -0.00000000       46.8927994      -1.58694470    
 -0.507632971       1.83611906      -0.00000000       90.6451950      -1.57845259    
 -0.449120998       1.85130095      -0.00000000       90.6451950      -1.57845259    
   0.00000000       0.00000000       0.00000000       90.6451950      -1.57845259    
 -0.565632999       1.81908906      -0.00000000       90.6451950      -1.57845259    
   0.00000000       0.00000000       0.00000000       68.4646378      -1.58137858    
 -0.449120998       1.85130095      -0.00000000       68.4646378      -1.58137858    
 -0.390157014       1.86461902      -0.00000000       68.4646378      -1.58137858    
 -0.330799997       1.87605906      -0.00000000       68.4646378      -1.58137858    
 -0.623063982       1.80022705      -0.00000000       113.516129      -1.57666481    
 -0.565632999       1.81908906      -0.00000000       113.516129      -1.57666481    
   0.00000000       0.00000000       0.00000000       113.516129      -1.57666481    
 -0.679867983       1.77955198      -0.00000000       113.516129      -1.57666481    
 -0.845947027       1.70686805      -0.00000000       162.418030      -1.57463157    
 -0.791365981       1.73284900      -0.00000000       162.418030      -1.57463157    
   0.00000000       0.00000000       0.00000000       162.418030      -1.57463157    
 -0.899676025       1.67916906      -0.00000000       162.418030      -1.57463157    
   0.00000000       0.00000000       0.00000000       137.365662      -1.57547116    
 -0.791365981       1.73284900      -0.00000000       137.365662      -1.57547116    
 -0.735987008       1.75708497      -0.00000000       137.365662      -1.57547116    
 -0.679867983       1.77955198      -0.00000000       137.365662      -1.57547116    
 -0.952499986       1.64977801      -0.00000000       188.531128      -1.57402456    
 -0.899676025       1.67916906      -0.00000000       188.531128      -1.57402456    
   0.00000000       0.00000000       0.00000000       188.531128      -1.57402456    
  -1.00436401       1.61872697      -0.00000000       188.531128      -1.57402456    
  -1.15368605       1.51592600      -0.00000000       242.392685      -1.57324815    
  -1.10500801       1.55176699      -0.00000000       242.392685      -1.57324815    
   0.00000000       0.00000000       0.00000000       242.392685      -1.57324815    
  -1.20120299       1.47855902      -0.00000000       242.392685      -1.57324815    
   0.00000000       0.00000000       0.00000000       215.394669      -1.57357860    
  -1.10500801       1.55176699      -0.00000000       215.394669      -1.57357860    
  -1.05521798       1.58604598      -0.00000000       215.394669      -1.57357860    
  -1.00436401       1.61872697      -0.00000000       215.394669      -1.57357860    
  -1.24750996       1.43970299      -0.00000000       268.048523      -1.57299876    
  -1.20120299       1.47855902      -0.00000000       268.048523      -1.57299876    
   0.00000000       0.00000000       0.00000000       268.048523      -1.57299876    
  -1.29255998       1.39939702      -0.00000000       268.048523      -1.57299876    
  -1.41972899       1.27019501      -0.00000000       292.277100      -1.57259345    
  -1.37871301       1.31459999      -0.00000000       292.277100      -1.57259345    
   0.00000000       0.00000000       0.00000000       292.277100      -1.57259345    
  -1.45931494       1.22450995      -0.00000000       292.277100      -1.57259345    
   0.00000000       0.00000000       0.00000000       286.982880      -1.57279432    
  -1.37871301       1.31459999      -0.00000000       286.982880      -1.57279432    
  -1.33631003       1.35768199      -0.00000000       286.982880      -1.57279432    
  -1.29255998       1.39939702      -0.00000000       286.982880      -1.57279432    
  -1.49743104       1.17759299      -0.00000000       290.669220      -1.57239258    
  -1.45931494       1.22450995      -0.00000000       290.669220      -1.57239258    
   0.00000000       0.00000000       0.00000000       290.669220      -1.57239258    
  -1.53403997       1.12949002      -0.00000000       290.669220      -1.57239258    
  -1.63445795      0.978555024      -0.00000000       285.322876      -1.57202911    
  -1.60258806       1.02992105      -0.00000000       285.322876      -1.57202911    
   0.00000000       0.00000000       0.00000000       285.322876      -1.57202911    
  -1.66468298      0.926204979      -0.00000000       285.322876      -1.57202911    
   0.00000000       0.00000000       0.00000000       287.867310      -1.57220304    
  -1.60258806       1.02992105      -0.00000000       287.867310      -1.57220304    
  -1.56910396       1.08024895      -0.00000000       287.867310      -1.57220304    
  -1.53403997       1.12949002      -0.00000000       287.867310      -1.57220304    
  -1.69323206      0.872922003      -0.00000000       283.532440      -1.57187390    
  -1.66468298      0.926204979      -0.00000000       283.532440      -1.57187390    
   0.00000000       0.00000000       0.00000000       283.532440      -1.57187390    
  -1.72007501      0.818759024      -0.00000000       283.532440      -1.57187390    
  -1.79011405      0.651548028      -0.00000000       282.848511      -1.57162750    
  -1.76854098      0.708016992      -0.00000000       282.848511      -1.57162750    
   0.00000000       0.00000000       0.00000000       282.848511      -1.57162750    
  -1.80988598      0.594424009      -0.00000000       282.848511      -1.57162750    
   0.00000000       0.00000000       0.00000000       282.781250      -1.57174003    
  -1.76854098      0.708016992      -0.00000000       282.781250      -1.57174003    
  -1.74518704      0.763773024      -0.00000000       282.781250      -1.57174003    
  -1.72007501      0.818759024      -0.00000000       282.781250      -1.57174003    
  -1.82783401      0.536701024      -0.00000000       283.498016      -1.57153630    
  -1.80988598      0.594424009      -0.00000000       283.498016      -1.57153630    
   0.00000000       0.00000000       0.00000000       283.498016      -1.57153630    
  -1.84394205      0.478437006      -0.00000000       283.498016      -1.57153630    
  -1.88107097      0.300992996      -0.00000000       285.566040      -1.57141495    
  -1.87057400      0.360523999      -0.00000000       285.566040      -1.57141495    
   0.00000000       0.00000000       0.00000000       285.566040      -1.57141495    
  -1.88967395      0.241159007      -0.00000000       285.566040      -1.57141495    
   0.00000000       0.00000000       0.00000000       284.500427      -1.57146573    
  -1.87057400      0.360523999      -0.00000000       284.500427      -1.57146573    
  -1.85819399      0.419692010      -0.00000000       284.500427      -1.57146573    
  -1.84394205      0.478437006      -0.00000000       284.500427      -1.57146573    
  -1.89637399      0.181081995      -0.00000000       286.374969      -1.57138133    
  -1.88967395      0.241159007      -0.00000000       286.374969      -1.57138133    
   0.00000000       0.00000000       0.00000000       286.374969      -1.57138133    
  -1.90116501      0.120823003      -0.00000000       286.374969      -1.57138133    
  -1.90404105      -6.04420006E-02  -0.00000000       286.866577      -1.57136512    
  -1.90499997       0.00000000      -0.00000000       286.866577      -1.57136512    
   0.00000000       0.00000000       0.00000000       286.866577      -1.57136512    
  -1.90116501     -0.120823003      -0.00000000       286.866577      -1.57136512    
   0.00000000       0.00000000       0.00000000       286.772430      -1.57136476    
  -1.90499997       0.00000000      -0.00000000       286.772430      -1.57136476    
  -1.90404105       6.04420006E-02  -0.00000000       286.772430      -1.57136476    
  -1.90116501      0.120823003      -0.00000000       286.772430      -1.57136476    
  -1.89637399     -0.181081995      -0.00000000       286.569672      -1.57138264    
  -1.90116501     -0.120823003      -0.00000000       286.569672      -1.57138264    
   0.00000000       0.00000000       0.00000000       286.569672      -1.57138264    
  -1.88967395     -0.241159007      -0.00000000       286.569672      -1.57138264    
  -1.85819399     -0.419692010      -0.00000000       285.081787      -1.57146871    
  -1.87057400     -0.360523999      -0.00000000       285.081787      -1.57146871    
   0.00000000       0.00000000       0.00000000       285.081787      -1.57146871    
  -1.84394205     -0.478437006      -0.00000000       285.081787      -1.57146871    
   0.00000000       0.00000000       0.00000000       285.898010      -1.57141650    
  -1.87057400     -0.360523999      -0.00000000       285.898010      -1.57141650    
  -1.88107097     -0.300992996      -0.00000000       285.898010      -1.57141650    
  -1.88967395     -0.241159007      -0.00000000       285.898010      -1.57141650    
  -1.82783401     -0.536701024      -0.00000000       284.503510      -1.57154047    
  -1.84394205     -0.478437006      -0.00000000       284.503510      -1.57154047    
   0.00000000       0.00000000       0.00000000       284.503510      -1.57154047    
  -1.80988598     -0.594424009      -0.00000000       284.503510      -1.57154047    
  -1.74518704     -0.763773024      -0.00000000       284.611816      -1.57174504    
  -1.76854098     -0.708016992      -0.00000000       284.611816      -1.57174504    
   0.00000000       0.00000000       0.00000000       284.611816      -1.57174504    
  -1.72007501     -0.818759024      -0.00000000       284.611816      -1.57174504    
   0.00000000       0.00000000       0.00000000       284.251984      -1.57163239    
  -1.76854098     -0.708016992      -0.00000000       284.251984      -1.57163239    
  -1.79011405     -0.651548028      -0.00000000       284.251984      -1.57163239    
  -1.80988598     -0.594424009      -0.00000000       284.251984      -1.57163239    
  -1.69323206     -0.872922003      -0.00000000       285.818542      -1.57187903    
  -1.72007501     -0.818759024      -0.00000000       285.818542      -1.57187903    
   0.00000000       0.00000000       0.00000000       285.818542      -1.57187903    
  -1.66468298     -0.926204979      -0.00000000       285.818542      -1.57187903    
  -1.56910396      -1.08024895      -0.00000000       290.176178      -1.57220387    
  -1.60258806      -1.02992105      -0.00000000       290.176178      -1.57220387    
   0.00000000       0.00000000       0.00000000       290.176178      -1.57220387    
  -1.53403997      -1.12949002      -0.00000000       290.176178      -1.57220387    
   0.00000000       0.00000000       0.00000000       287.778809      -1.57203269    
  -1.60258806      -1.02992105      -0.00000000       287.778809      -1.57203269    
  -1.63445795     -0.978555024      -0.00000000       287.778809      -1.57203269    
  -1.66468298     -0.926204979      -0.00000000       287.778809      -1.57203269    
  -1.49743104      -1.17759299      -0.00000000       292.479614      -1.57239175    
  -1.53403997      -1.12949002      -0.00000000       292.479614      -1.57239175    
   0.00000000       0.00000000       0.00000000       292.479614      -1.57239175    
  -1.45931494      -1.22450995      -0.00000000       292.479614      -1.57239175    
  -1.33631003      -1.35768199      -0.00000000       287.133636      -1.57279372    
  -1.37871301      -1.31459999      -0.00000000       287.133636      -1.57279372    
   0.00000000       0.00000000       0.00000000       287.133636      -1.57279372    
  -1.29255998      -1.39939702      -0.00000000       287.133636      -1.57279372    
   0.00000000       0.00000000       0.00000000       293.255524      -1.57259130    
  -1.37871301      -1.31459999      -0.00000000       293.255524      -1.57259130    
  -1.41972899      -1.27019501      -0.00000000       293.255524      -1.57259130    
  -1.45931494      -1.22450995      -0.00000000       293.255524      -1.57259130    
  -1.24750996      -1.43970299      -0.00000000       267.299072      -1.57300246    
  -1.29255998      -1.39939702      -0.00000000       267.299072      -1.57300246    
   0.00000000       0.00000000       0.00000000       267.299072      -1.57300246    
  -1.20120299      -1.47855902      -0.00000000       267.299072      -1.57300246    
  -1.05521798      -1.58604598      -0.00000000       212.886673      -1.57359898    
  -1.10500801      -1.55176699      -0.00000000       212.886673      -1.57359898    
   0.00000000       0.00000000       0.00000000       212.886673      -1.57359898    
  -1.00436401      -1.61872697      -0.00000000       212.886673      -1.57359898    
   0.00000000       0.00000000       0.00000000       240.620667      -1.57325852    
  -1.10500801      -1.55176699      -0.00000000       240.620667      -1.57325852    
  -1.15368605      -1.51592600      -0.00000000       240.620667      -1.57325852    
  -1.20120299      -1.47855902      -0.00000000       240.620667      -1.57325852    
 -0.952499986      -1.64977801      -0.00000000       185.667175      -1.57405877    
  -1.00436401      -1.61872697      -0.00000000       185.667175      -1.57405877    
   0.00000000       0.00000000       0.00000000       185.667175      -1.57405877    
 -0.899676025      -1.67916906      -0.00000000       185.667175      -1.57405877    
 -0.735987008      -1.75708497      -0.00000000       134.689514      -1.57554817    
 -0.791365981      -1.73284900      -0.00000000       134.689514      -1.57554817    
   0.00000000       0.00000000       0.00000000       134.689514      -1.57554817    
 -0.679867983      -1.77955198      -0.00000000       134.689514      -1.57554817    
   0.00000000       0.00000000       0.00000000       159.507187      -1.57468450    
 -0.791365981      -1.73284900      -0.00000000       159.507187      -1.57468450    
 -0.845947027      -1.70686805      -0.00000000       159.507187      -1.57468450    
 -0.899676025      -1.67916906      -0.00000000       159.507187      -1.57468450    
 -0.623063982      -1.80022705      -0.00000000       111.054955      -1.57678032    
 -0.679867983      -1.77955198      -0.00000000       111.054955      -1.57678032    
   0.00000000       0.00000000       0.00000000       111.054955      -1.57678032    
 -0.565632999      -1.81908906      -0.00000000       111.054955      -1.57678032    
 -0.390157014      -1.86461902      -0.00000000       66.3707657      -1.58170021    
 -0.449120998      -1.85130095      -0.00000000       66.3707657      -1.58170021    
   0.00000000       0.00000000       0.00000000       66.3707657      -1.58170021    
 -0.330799997      -1.87605906      -0.00000000       66.3707657      -1.58170021    
   0.00000000       0.00000000       0.00000000       88.3559418      -1.57863724    
 -0.449120998      -1.85130095      -0.00000000       88.3559418      -1.57863724    
 -0.507632971      -1.83611906      -0.00000000       88.3559418      -1.57863724    
 -0.565632999      -1.81908906      -0.00000000       88.3559418      -1.57863724    
 -0.271109998      -1.88560998      -0.00000000       44.9366302      -1.58763242    
 -0.330799997      -1.87605906      -0.00000000       44.9366302      -1.58763242    
   0.00000000       0.00000000       0.00000000       44.9366302      -1.58763242    
 -0.211146995      -1.89326203      -0.00000000       44.9366302      -1.58763242    
  -3.02249994E-02  -1.90476000      -0.00000000       2.84148788      -1.86540532    
  -9.06440020E-02  -1.90284204      -0.00000000       2.84148788      -1.86540532    
   0.00000000       0.00000000       0.00000000       2.84148788      -1.86540532    
   3.02249994E-02  -1.90476000      -0.00000000       2.84148788      -1.86540532    
   0.00000000       0.00000000       0.00000000       23.7709961      -1.60405862    
  -9.06440020E-02  -1.90284204      -0.00000000       23.7709961      -1.60405862    
 -0.150970995      -1.89900804      -0.00000000       23.7709961      -1.60405862    
 -0.211146995      -1.89326203      -0.00000000       23.7709961      -1.60405862    
   9.06440020E-02  -1.90284204      -0.00000000       18.2944317       1.61781061    
   3.02249994E-02  -1.90476000      -0.00000000       18.2944317       1.61781061    
   0.00000000       0.00000000       0.00000000       18.2944317       1.61781061    
  0.150970995      -1.89900804      -0.00000000       18.2944317       1.61781061    
  0.330799997      -1.87605906      -0.00000000       60.6890602       1.58607423    
  0.271109998      -1.88560998      -0.00000000       60.6890602       1.58607423    
   0.00000000       0.00000000       0.00000000       60.6890602       1.58607423    
  0.390157014      -1.86461902      -0.00000000       60.6890602       1.58607423    
   0.00000000       0.00000000       0.00000000       39.3869247       1.59349477    
  0.271109998      -1.88560998      -0.00000000       39.3869247       1.59349477    
  0.211146995      -1.89326203      -0.00000000       39.3869247       1.59349477    
  0.150970995      -1.89900804      -0.00000000       39.3869247       1.59349477    
  0.449120998      -1.85130095      -0.00000000       82.3615646       1.58243823    
  0.390157014      -1.86461902      -0.00000000       82.3615646       1.58243823    
   0.00000000       0.00000000       0.00000000       82.3615646       1.58243823    
  0.507632971      -1.83611906      -0.00000000       82.3615646       1.58243823    
  0.679867983      -1.77955198      -0.00000000       127.685814       1.57873774    
  0.623063982      -1.80022705      -0.00000000       127.685814       1.57873774    
   0.00000000       0.00000000       0.00000000       127.685814       1.57873774    
  0.735987008      -1.75708497      -0.00000000       127.685814       1.57873774    
   0.00000000       0.00000000       0.00000000       104.677948       1.58023500    
  0.623063982      -1.80022705      -0.00000000       104.677948       1.58023500    
  0.565632999      -1.81908906      -0.00000000       104.677948       1.58023500    
  0.507632971      -1.83611906      -0.00000000       104.677948       1.58023500    
  0.791365981      -1.73284900      -0.00000000       151.682877       1.57762551    
  0.735987008      -1.75708497      -0.00000000       151.682877       1.57762551    
   0.00000000       0.00000000       0.00000000       151.682877       1.57762551    
  0.845947027      -1.70686805      -0.00000000       151.682877       1.57762551    
   1.00436401      -1.61872697      -0.00000000       203.220795       1.57602918    
  0.952499986      -1.64977801      -0.00000000       203.220795       1.57602918    
   0.00000000       0.00000000       0.00000000       203.220795       1.57602918    
   1.05521798      -1.58604598      -0.00000000       203.220795       1.57602918    
   0.00000000       0.00000000       0.00000000       176.907364       1.57674575    
  0.952499986      -1.64977801      -0.00000000       176.907364       1.57674575    
  0.899676025      -1.67916906      -0.00000000       176.907364       1.57674575    
  0.845947027      -1.70686805      -0.00000000       176.907364       1.57674575    
   1.10500801      -1.55176699      -0.00000000       230.306854       1.57543683    
   1.05521798      -1.58604598      -0.00000000       230.306854       1.57543683    
   0.00000000       0.00000000       0.00000000       230.306854       1.57543683    
   1.15368605      -1.51592600      -0.00000000       230.306854       1.57543683    
   1.29255998      -1.39939702      -0.00000000       283.375488       1.57456696    
   1.24750996      -1.43970299      -0.00000000       283.375488       1.57456696    
   0.00000000       0.00000000       0.00000000       283.375488       1.57456696    
   1.33631003      -1.35768199      -0.00000000       283.375488       1.57456696    
   0.00000000       0.00000000       0.00000000       257.541595       1.57494807    
   1.24750996      -1.43970299      -0.00000000       257.541595       1.57494807    
   1.20120299      -1.47855902      -0.00000000       257.541595       1.57494807    