 VARIABLES="X" "Y" "Z" "abs(p) (Pa)" "angle(p) (rad)"
ZONE N=    802,E =     800, F=FEPOINT, ET=QUADRILATERAL
   1.90499997       0.00000000      -0.00000000       1944.29175       1.57529247    
   1.90404105      -6.04420006E-02  -0.00000000       1944.29175       1.57529247    
   0.00000000       0.00000000       0.00000000       1944.29175       1.57529247    
   1.90404105       6.04420006E-02  -0.00000000       1944.29175       1.57529247    
   1.88967395      0.241159007      -0.00000000       1940.61816       1.57527566    
   1.89637399      0.181081995      -0.00000000       1940.61816       1.57527566    
   0.00000000       0.00000000       0.00000000       1940.61816       1.57527566    
   1.88107097      0.300992996      -0.00000000       1940.61816       1.57527566    
   0.00000000       0.00000000       0.00000000       1943.09338       1.57528901    
   1.89637399      0.181081995      -0.00000000       1943.09338       1.57528901    
   1.90116501      0.120823003      -0.00000000       1943.09338       1.57528901    
   1.90404105       6.04420006E-02  -0.00000000       1943.09338       1.57528901    
   1.87057400      0.360523999      -0.00000000       1938.04370       1.57524812    
   1.88107097      0.300992996      -0.00000000       1938.04370       1.57524812    
   0.00000000       0.00000000       0.00000000       1938.04370       1.57524812    
   1.85819399      0.419692010      -0.00000000       1938.04370       1.57524812    
   1.80988598      0.594424009      -0.00000000       1937.24390       1.57513750    
   1.82783401      0.536701024      -0.00000000       1937.24390       1.57513750    
   0.00000000       0.00000000       0.00000000       1937.24390       1.57513750    
   1.79011405      0.651548028      -0.00000000       1937.24390       1.57513750    
   0.00000000       0.00000000       0.00000000       1936.12268       1.57520461    
   1.82783401      0.536701024      -0.00000000       1936.12268       1.57520461    
   1.84394205      0.478437006      -0.00000000       1936.12268       1.57520461    
   1.85819399      0.419692010      -0.00000000       1936.12268       1.57520461    
   1.76854098      0.708016992      -0.00000000       1943.36890       1.57504165    
   1.79011405      0.651548028      -0.00000000       1943.36890       1.57504165    
   0.00000000       0.00000000       0.00000000       1943.36890       1.57504165    
   1.74518704      0.763773024      -0.00000000       1943.36890       1.57504165    
   1.66468298      0.926204979      -0.00000000       1972.83997       1.57475865    
   1.69323206      0.872922003      -0.00000000       1972.83997       1.57475865    
   0.00000000       0.00000000       0.00000000       1972.83997       1.57475865    
   1.63445795      0.978555024      -0.00000000       1972.83997       1.57475865    
   0.00000000       0.00000000       0.00000000       1955.05664       1.57491529    
   1.69323206      0.872922003      -0.00000000       1955.05664       1.57491529    
   1.72007501      0.818759024      -0.00000000       1955.05664       1.57491529    
   1.74518704      0.763773024      -0.00000000       1955.05664       1.57491529    
   1.60258806       1.02992105      -0.00000000       1994.89258       1.57457840    
   1.63445795      0.978555024      -0.00000000       1994.89258       1.57457840    
   0.00000000       0.00000000       0.00000000       1994.89258       1.57457840    
   1.56910396       1.08024895      -0.00000000       1994.89258       1.57457840    
   1.45931494       1.22450995      -0.00000000       2027.54553       1.57421541    
   1.49743104       1.17759299      -0.00000000       2027.54553       1.57421541    
   0.00000000       0.00000000       0.00000000       2027.54553       1.57421541    
   1.41972899       1.27019501      -0.00000000       2027.54553       1.57421541    
   0.00000000       0.00000000       0.00000000       2016.58228       1.57438827    
   1.49743104       1.17759299      -0.00000000       2016.58228       1.57438827    
   1.53403997       1.12949002      -0.00000000       2016.58228       1.57438827    
   1.56910396       1.08024895      -0.00000000       2016.58228       1.57438827    
   1.37871301       1.31459999      -0.00000000       1991.25256       1.57415652    
   1.41972899       1.27019501      -0.00000000       1991.25256       1.57415652    
   0.00000000       0.00000000       0.00000000       1991.25256       1.57415652    
   1.33631003       1.35768199      -0.00000000       1991.25256       1.57415652    
   1.20120299       1.47855902      -0.00000000       1682.77832       1.57473779    
   1.24750996       1.43970299      -0.00000000       1682.77832       1.57473779    
   0.00000000       0.00000000       0.00000000       1682.77832       1.57473779    
   1.15368605       1.51592600      -0.00000000       1682.77832       1.57473779    
   0.00000000       0.00000000       0.00000000       1860.94470       1.57435572    
   1.24750996       1.43970299      -0.00000000       1860.94470       1.57435572    
   1.29255998       1.39939702      -0.00000000       1860.94470       1.57435572    
   1.33631003       1.35768199      -0.00000000       1860.94470       1.57435572    
   1.10500801       1.55176699      -0.00000000       1497.81421       1.57522416    
   1.15368605       1.51592600      -0.00000000       1497.81421       1.57522416    
   0.00000000       0.00000000       0.00000000       1497.81421       1.57522416    
   1.05521798       1.58604598      -0.00000000       1497.81421       1.57522416    
  0.899676025       1.67916906      -0.00000000       1143.55933       1.57652032    
  0.952499986       1.64977801      -0.00000000       1143.55933       1.57652032    
   0.00000000       0.00000000       0.00000000       1143.55933       1.57652032    
  0.845947027       1.70686805      -0.00000000       1143.55933       1.57652032    
   0.00000000       0.00000000       0.00000000       1316.96594       1.57581127    
  0.952499986       1.64977801      -0.00000000       1316.96594       1.57581127    
   1.00436401       1.61872697      -0.00000000       1316.96594       1.57581127    
   1.05521798       1.58604598      -0.00000000       1316.96594       1.57581127    
  0.791365981       1.73284900      -0.00000000       978.511536       1.57739532    
  0.845947027       1.70686805      -0.00000000       978.511536       1.57739532    
   0.00000000       0.00000000       0.00000000       978.511536       1.57739532    
  0.735987008       1.75708497      -0.00000000       978.511536       1.57739532    
  0.565632999       1.81908906      -0.00000000       671.901245       1.58003390    
  0.623063982       1.80022705      -0.00000000       671.901245       1.58003390    
   0.00000000       0.00000000       0.00000000       671.901245       1.58003390    
  0.507632971       1.83611906      -0.00000000       671.901245       1.58003390    
   0.00000000       0.00000000       0.00000000       821.800232       1.57851410    
  0.623063982       1.80022705      -0.00000000       821.800232       1.57851410    
  0.679867983       1.77955198      -0.00000000       821.800232       1.57851410    
  0.735987008       1.75708497      -0.00000000       821.800232       1.57851410    
  0.449120998       1.85130095      -0.00000000       526.978027       1.58228660    
  0.507632971       1.83611906      -0.00000000       526.978027       1.58228660    
   0.00000000       0.00000000       0.00000000       526.978027       1.58228660    
  0.390157014       1.86461902      -0.00000000       526.978027       1.58228660    
  0.211146995       1.89326203      -0.00000000       246.236862       1.59403253    
  0.271109998       1.88560998      -0.00000000       246.236862       1.59403253    
   0.00000000       0.00000000       0.00000000       246.236862       1.59403253    
  0.150970995       1.89900804      -0.00000000       246.236862       1.59403253    
   0.00000000       0.00000000       0.00000000       385.398743       1.58608460    
  0.271109998       1.88560998      -0.00000000       385.398743       1.58608460    
  0.330799997       1.87605906      -0.00000000       385.398743       1.58608460    
  0.390157014       1.86461902      -0.00000000       385.398743       1.58608460    
   9.06440020E-02   1.90284204      -0.00000000       108.176743       1.62208796    
  0.150970995       1.89900804      -0.00000000       108.176743       1.62208796    
   0.00000000       0.00000000       0.00000000       108.176743       1.62208796    
   3.02249994E-02   1.90476000      -0.00000000       108.176743       1.62208796    
 -0.150970995       1.89900804      -0.00000000       168.091858      -1.60169506    
  -9.06440020E-02   1.90284204      -0.00000000       168.091858      -1.60169506    
   0.00000000       0.00000000       0.00000000       168.091858      -1.60169506    
 -0.211146995       1.89326203      -0.00000000       168.091858      -1.60169506    
   0.00000000       0.00000000       0.00000000       30.5074749      -1.74773657    
  -9.06440020E-02   1.90284204      -0.00000000       30.5074749      -1.74773657    
  -3.02249994E-02   1.90476000      -0.00000000       30.5074749      -1.74773657    
   3.02249994E-02   1.90476000      -0.00000000       30.5074749      -1.74773657    
 -0.271109998       1.88560998      -0.00000000       307.295135      -1.58713233    
 -0.211146995       1.89326203      -0.00000000       307.295135      -1.58713233    
   0.00000000       0.00000000       0.00000000       307.295135      -1.58713233    
 -0.330799997       1.87605906      -0.00000000       307.295135      -1.58713233    
 -0.507632971       1.83611906      -0.00000000       594.436401      -1.57869768    
 -0.449120998       1.85130095      -0.00000000       594.436401      -1.57869768    
   0.00000000       0.00000000       0.00000000       594.436401      -1.57869768    
 -0.565632999       1.81908906      -0.00000000       594.436401      -1.57869768    
   0.00000000       0.00000000       0.00000000       449.106659      -1.58160400    
 -0.449120998       1.85130095      -0.00000000       449.106659      -1.58160400    
 -0.390157014       1.86461902      -0.00000000       449.106659      -1.58160400    
 -0.330799997       1.87605906      -0.00000000       449.106659      -1.58160400    
 -0.623063982       1.80022705      -0.00000000       745.219971      -1.57690883    
 -0.565632999       1.81908906      -0.00000000       745.219971      -1.57690883    
   0.00000000       0.00000000       0.00000000       745.219971      -1.57690883    
 -0.679867983       1.77955198      -0.00000000       745.219971      -1.57690883    
 -0.845947027       1.70686805      -0.00000000       1067.45178      -1.57485354    
 -0.791365981       1.73284900      -0.00000000       1067.45178      -1.57485354    
   0.00000000       0.00000000       0.00000000       1067.45178      -1.57485354    
 -0.899676025       1.67916906      -0.00000000       1067.45178      -1.57485354    
   0.00000000       0.00000000       0.00000000       902.858459      -1.57570529    
 -0.791365981       1.73284900      -0.00000000       902.858459      -1.57570529    
 -0.735987008       1.75708497      -0.00000000       902.858459      -1.57570529    
 -0.679867983       1.77955198      -0.00000000       902.858459      -1.57570529    
 -0.952499986       1.64977801      -0.00000000       1239.34277      -1.57423043    
 -0.899676025       1.67916906      -0.00000000       1239.34277      -1.57423043    
   0.00000000       0.00000000       0.00000000       1239.34277      -1.57423043    
  -1.00436401       1.61872697      -0.00000000       1239.34277      -1.57423043    
  -1.15368605       1.51592600      -0.00000000       1595.73584      -1.57341433    
  -1.10500801       1.55176699      -0.00000000       1595.73584      -1.57341433    
   0.00000000       0.00000000       0.00000000       1595.73584      -1.57341433    
  -1.20120299       1.47855902      -0.00000000       1595.73584      -1.57341433    
   0.00000000       0.00000000       0.00000000       1416.97290      -1.57376468    
  -1.10500801       1.55176699      -0.00000000       1416.97290      -1.57376468    
  -1.05521798       1.58604598      -0.00000000       1416.97290      -1.57376468    
  -1.00436401       1.61872697      -0.00000000       1416.97290      -1.57376468    
  -1.24750996       1.43970299      -0.00000000       1765.57178      -1.57314897    
  -1.20120299       1.47855902      -0.00000000       1765.57178      -1.57314897    
   0.00000000       0.00000000       0.00000000       1765.57178      -1.57314897    
  -1.29255998       1.39939702      -0.00000000       1765.57178      -1.57314897    
  -1.41972899       1.27019501      -0.00000000       1924.16187      -1.57278371    
  -1.37871301       1.31459999      -0.00000000       1924.16187      -1.57278371    
   0.00000000       0.00000000       0.00000000       1924.16187      -1.57278371    
  -1.45931494       1.22450995      -0.00000000       1924.16187      -1.57278371    
   0.00000000       0.00000000       0.00000000       1890.31860      -1.57294738    
  -1.37871301       1.31459999      -0.00000000       1890.31860      -1.57294738    
  -1.33631003       1.35768199      -0.00000000       1890.31860      -1.57294738    
  -1.29255998       1.39939702      -0.00000000       1890.31860      -1.57294738    
  -1.49743104       1.17759299      -0.00000000       1911.08105      -1.57263625    
  -1.45931494       1.22450995      -0.00000000       1911.08105      -1.57263625    
   0.00000000       0.00000000       0.00000000       1911.08105      -1.57263625    
  -1.53403997       1.12949002      -0.00000000       1911.08105      -1.57263625    
  -1.63445795      0.978555024      -0.00000000       1871.59082      -1.57237411    
  -1.60258806       1.02992105      -0.00000000       1871.59082      -1.57237411    
   0.00000000       0.00000000       0.00000000       1871.59082      -1.57237411    
  -1.66468298      0.926204979      -0.00000000       1871.59082      -1.57237411    
   0.00000000       0.00000000       0.00000000       1890.11584      -1.57249963    
  -1.60258806       1.02992105      -0.00000000       1890.11584      -1.57249963    
  -1.56910396       1.08024895      -0.00000000       1890.11584      -1.57249963    
  -1.53403997       1.12949002      -0.00000000       1890.11584      -1.57249963    
  -1.69323206      0.872922003      -0.00000000       1858.49487      -1.57226050    
  -1.66468298      0.926204979      -0.00000000       1858.49487      -1.57226050    
   0.00000000       0.00000000       0.00000000       1858.49487      -1.57226050    
  -1.72007501      0.818759024      -0.00000000       1858.49487      -1.57226050    
  -1.79011405      0.651548028      -0.00000000       1851.81250      -1.57207477    
  -1.76854098      0.708016992      -0.00000000       1851.81250      -1.57207477    
   0.00000000       0.00000000       0.00000000       1851.81250      -1.57207477    
  -1.80988598      0.594424009      -0.00000000       1851.81250      -1.57207477    
   0.00000000       0.00000000       0.00000000       1852.07166      -1.57216060    
  -1.76854098      0.708016992      -0.00000000       1852.07166      -1.57216060    
  -1.74518704      0.763773024      -0.00000000       1852.07166      -1.57216060    
  -1.72007501      0.818759024      -0.00000000       1852.07166      -1.57216060    
  -1.82783401      0.536701024      -0.00000000       1855.62048      -1.57200372    
  -1.80988598      0.594424009      -0.00000000       1855.62048      -1.57200372    
   0.00000000       0.00000000       0.00000000       1855.62048      -1.57200372    
  -1.84394205      0.478437006      -0.00000000       1855.62048      -1.57200372    
  -1.88107097      0.300992996      -0.00000000       1867.49292      -1.57190621    
  -1.87057400      0.360523999      -0.00000000       1867.49292      -1.57190621    
   0.00000000       0.00000000       0.00000000       1867.49292      -1.57190621    
  -1.88967395      0.241159007      -0.00000000       1867.49292      -1.57190621    
   0.00000000       0.00000000       0.00000000       1861.53235      -1.57194781    
  -1.87057400      0.360523999      -0.00000000       1861.53235      -1.57194781    
  -1.85819399      0.419692010      -0.00000000       1861.53235      -1.57194781    
  -1.84394205      0.478437006      -0.00000000       1861.53235      -1.57194781    
  -1.89637399      0.181081995      -0.00000000       1872.91821      -1.57187879    
  -1.88967395      0.241159007      -0.00000000       1872.91821      -1.57187879    
   0.00000000       0.00000000       0.00000000       1872.91821      -1.57187879    
  -1.90116501      0.120823003      -0.00000000       1872.91821      -1.57187879    
  -1.90404105      -6.04420006E-02  -0.00000000       1876.28772      -1.57186532    
  -1.90499997       0.00000000      -0.00000000       1876.28772      -1.57186532    
   0.00000000       0.00000000       0.00000000       1876.28772      -1.57186532    
  -1.90116501     -0.120823003      -0.00000000       1876.28772      -1.57186532    
   0.00000000       0.00000000       0.00000000       1876.12451      -1.57186532    
  -1.90499997       0.00000000      -0.00000000       1876.12451      -1.57186532    
  -1.90404105       6.04420006E-02  -0.00000000       1876.12451      -1.57186532    
  -1.90116501      0.120823003      -0.00000000       1876.12451      -1.57186532    
  -1.89637399     -0.181081995      -0.00000000       1873.76672      -1.57187915    
  -1.90116501     -0.120823003      -0.00000000       1873.76672      -1.57187915    
   0.00000000       0.00000000       0.00000000       1873.76672      -1.57187915    
  -1.88967395     -0.241159007      -0.00000000       1873.76672      -1.57187915    
  -1.85819399     -0.419692010      -0.00000000       1865.74182      -1.57194841    
  -1.87057400     -0.360523999      -0.00000000       1865.74182      -1.57194841    
   0.00000000       0.00000000       0.00000000       1865.74182      -1.57194841    
  -1.84394205     -0.478437006      -0.00000000       1865.74182      -1.57194841    
   0.00000000       0.00000000       0.00000000       1869.98389      -1.57190681    
  -1.87057400     -0.360523999      -0.00000000       1869.98389      -1.57190681    
  -1.88107097     -0.300992996      -0.00000000       1869.98389      -1.57190681    
  -1.88967395     -0.241159007      -0.00000000       1869.98389      -1.57190681    
  -1.82783401     -0.536701024      -0.00000000       1861.90918      -1.57200468    
  -1.84394205     -0.478437006      -0.00000000       1861.90918      -1.57200468    
   0.00000000       0.00000000       0.00000000       1861.90918      -1.57200468    
  -1.80988598     -0.594424009      -0.00000000       1861.90918      -1.57200468    
  -1.74518704     -0.763773024      -0.00000000       1864.64099      -1.57216012    
  -1.76854098     -0.708016992      -0.00000000       1864.64099      -1.57216012    
   0.00000000       0.00000000       0.00000000       1864.64099      -1.57216012    
  -1.72007501     -0.818759024      -0.00000000       1864.64099      -1.57216012    
   0.00000000       0.00000000       0.00000000       1860.94556      -1.57207525    
  -1.76854098     -0.708016992      -0.00000000       1860.94556      -1.57207525    
  -1.79011405     -0.651548028      -0.00000000       1860.94556      -1.57207525    
  -1.80988598     -0.594424009      -0.00000000       1860.94556      -1.57207525    
  -1.69323206     -0.872922003      -0.00000000       1873.58264      -1.57225895    
  -1.72007501     -0.818759024      -0.00000000       1873.58264      -1.57225895    
   0.00000000       0.00000000       0.00000000       1873.58264      -1.57225895    
  -1.66468298     -0.926204979      -0.00000000       1873.58264      -1.57225895    
  -1.56910396      -1.08024895      -0.00000000       1906.02832      -1.57249510    
  -1.60258806      -1.02992105      -0.00000000       1906.02832      -1.57249510    
   0.00000000       0.00000000       0.00000000       1906.02832      -1.57249510    
  -1.53403997      -1.12949002      -0.00000000       1906.02832      -1.57249510    
   0.00000000       0.00000000       0.00000000       1887.92737      -1.57237101    
  -1.60258806      -1.02992105      -0.00000000       1887.92737      -1.57237101    
  -1.63445795     -0.978555024      -0.00000000       1887.92737      -1.57237101    
  -1.66468298     -0.926204979      -0.00000000       1887.92737      -1.57237101    
  -1.49743104      -1.17759299      -0.00000000       1923.54224      -1.57263136    
  -1.53403997      -1.12949002      -0.00000000       1923.54224      -1.57263136    
   0.00000000       0.00000000       0.00000000       1923.54224      -1.57263136    
  -1.45931494      -1.22450995      -0.00000000       1923.54224      -1.57263136    
  -1.33631003      -1.35768199      -0.00000000       1890.62390      -1.57294667    
  -1.37871301      -1.31459999      -0.00000000       1890.62390      -1.57294667    
   0.00000000       0.00000000       0.00000000       1890.62390      -1.57294667    
  -1.29255998      -1.39939702      -0.00000000       1890.62390      -1.57294667    
   0.00000000       0.00000000       0.00000000       1930.36084      -1.57277977    
  -1.37871301      -1.31459999      -0.00000000       1930.36084      -1.57277977    
  -1.41972899      -1.27019501      -0.00000000       1930.36084      -1.57277977    
  -1.45931494      -1.22450995      -0.00000000       1930.36084      -1.57277977    
  -1.24750996      -1.43970299      -0.00000000       1759.76733      -1.57315433    
  -1.29255998      -1.39939702      -0.00000000       1759.76733      -1.57315433    
   0.00000000       0.00000000       0.00000000       1759.76733      -1.57315433    
  -1.20120299      -1.47855902      -0.00000000       1759.76733      -1.57315433    
  -1.05521798      -1.58604598      -0.00000000       1399.78455      -1.57379127    
  -1.10500801      -1.55176699      -0.00000000       1399.78455      -1.57379127    
   0.00000000       0.00000000       0.00000000       1399.78455      -1.57379127    
  -1.00436401      -1.61872697      -0.00000000       1399.78455      -1.57379127    
   0.00000000       0.00000000       0.00000000       1583.09937      -1.57342863    
  -1.10500801      -1.55176699      -0.00000000       1583.09937      -1.57342863    
  -1.15368605      -1.51592600      -0.00000000       1583.09937      -1.57342863    
  -1.20120299      -1.47855902      -0.00000000       1583.09937      -1.57342863    
 -0.952499986      -1.64977801      -0.00000000       1220.37585      -1.57427227    
  -1.00436401      -1.61872697      -0.00000000       1220.37585      -1.57427227    
   0.00000000       0.00000000       0.00000000       1220.37585      -1.57427227    
 -0.899676025      -1.67916906      -0.00000000       1220.37585      -1.57427227    
 -0.735987008      -1.75708497      -0.00000000       884.142578      -1.57579577    
 -0.791365981      -1.73284900      -0.00000000       884.142578      -1.57579577    
   0.00000000       0.00000000       0.00000000       884.142578      -1.57579577    
 -0.679867983      -1.77955198      -0.00000000       884.142578      -1.57579577    
   0.00000000       0.00000000       0.00000000       1048.18469      -1.57491577    
 -0.791365981      -1.73284900      -0.00000000       1048.18469      -1.57491577    
 -0.845947027      -1.70686805      -0.00000000       1048.18469      -1.57491577    
 -0.899676025      -1.67916906      -0.00000000       1048.18469      -1.57491577    
 -0.623063982      -1.80022705      -0.00000000       728.308533      -1.57703876    
 -0.679867983      -1.77955198      -0.00000000       728.308533      -1.57703876    
   0.00000000       0.00000000       0.00000000       728.308533      -1.57703876    
 -0.565632999      -1.81908906      -0.00000000       728.308533      -1.57703876    
 -0.390157014      -1.86461902      -0.00000000       434.937744      -1.58194673    
 -0.449120998      -1.85130095      -0.00000000       434.937744      -1.58194673    
   0.00000000       0.00000000       0.00000000       434.937744      -1.58194673    
 -0.330799997      -1.87605906      -0.00000000       434.937744      -1.58194673    
   0.00000000       0.00000000       0.00000000       579.180359      -1.57889640    
 -0.449120998      -1.85130095      -0.00000000       579.180359      -1.57889640    
 -0.507632971      -1.83611906      -0.00000000       579.180359      -1.57889640    
 -0.565632999      -1.81908906      -0.00000000       579.180359      -1.57889640    
 -0.271109998      -1.88560998      -0.00000000       293.933350      -1.58786726    
 -0.330799997      -1.87605906      -0.00000000       293.933350      -1.58786726    
   0.00000000       0.00000000       0.00000000       293.933350      -1.58786726    
 -0.211146995      -1.89326203      -0.00000000       293.933350      -1.58786726    
  -3.02249994E-02  -1.90476000      -0.00000000       17.9372540      -1.87473774    
  -9.06440020E-02  -1.90284204      -0.00000000       17.9372540      -1.87473774    
   0.00000000       0.00000000       0.00000000       17.9372540      -1.87473774    
   3.02249994E-02  -1.90476000      -0.00000000       17.9372540      -1.87473774    
   0.00000000       0.00000000       0.00000000       155.151337      -1.60426342    
  -9.06440020E-02  -1.90284204      -0.00000000       155.151337      -1.60426342    
 -0.150970995      -1.89900804      -0.00000000       155.151337      -1.60426342    
 -0.211146995      -1.89326203      -0.00000000       155.151337      -1.60426342    
   9.06440020E-02  -1.90284204      -0.00000000       121.128975       1.61658430    
   3.02249994E-02  -1.90476000      -0.00000000       121.128975       1.61658430    
   0.00000000       0.00000000       0.00000000       121.128975       1.61658430    
  0.150970995      -1.89900804      -0.00000000       121.128975       1.61658430    
  0.330799997      -1.87605906      -0.00000000       399.074921       1.58555329    
  0.271109998      -1.88560998      -0.00000000       399.074921       1.58555329    
   0.00000000       0.00000000       0.00000000       399.074921       1.58555329    
  0.390157014      -1.86461902      -0.00000000       399.074921       1.58555329    
   0.00000000       0.00000000       0.00000000       259.314819       1.59285295    
  0.271109998      -1.88560998      -0.00000000       259.314819       1.59285295    
  0.211146995      -1.89326203      -0.00000000       259.314819       1.59285295    
  0.150970995      -1.89900804      -0.00000000       259.314819       1.59285295    
  0.449120998      -1.85130095      -0.00000000       541.637512       1.58196652    
  0.390157014      -1.86461902      -0.00000000       541.637512       1.58196652    
   0.00000000       0.00000000       0.00000000       541.637512       1.58196652    
  0.507632971      -1.83611906      -0.00000000       541.637512       1.58196652    
  0.679867983      -1.77955198      -0.00000000       839.526001       1.57833922    
  0.623063982      -1.80022705      -0.00000000       839.526001       1.57833922    
   0.00000000       0.00000000       0.00000000       839.526001       1.57833922    
  0.735987008      -1.75708497      -0.00000000       839.526001       1.57833922    
   0.00000000       0.00000000       0.00000000       687.796265       1.57981014    
  0.623063982      -1.80022705      -0.00000000       687.796265       1.57981014    
  0.565632999      -1.81908906      -0.00000000       687.796265       1.57981014    
  0.507632971      -1.83611906      -0.00000000       687.796265       1.57981014    
  0.791365981      -1.73284900      -0.00000000       998.230469       1.57725167    
  0.735987008      -1.75708497      -0.00000000       998.230469       1.57725167    
   0.00000000       0.00000000       0.00000000       998.230469       1.57725167    
  0.845947027      -1.70686805      -0.00000000       998.230469       1.57725167    
   1.00436401      -1.61872697      -0.00000000       1337.25256       1.57572269    
  0.952499986      -1.64977801      -0.00000000       1337.25256       1.57572269    
   0.00000000       0.00000000       0.00000000       1337.25256       1.57572269    
   1.05521798      -1.58604598      -0.00000000       1337.25256       1.57572269    
   0.00000000       0.00000000       0.00000000       1164.00183       1.57640636    
  0.952499986      -1.64977801      -0.00000000       1164.00183       1.57640636    
  0.899676025      -1.67916906      -0.00000000       1164.00183       1.57640636    
  0.845947027      -1.70686805      -0.00000000       1164.00183       1.57640636    
   1.10500801      -1.55176699      -0.00000000       1516.42883       1.57515943    
   1.05521798      -1.58604598      -0.00000000       1516.42883       1.57515943    
   0.00000000       0.00000000       0.00000000       1516.42883       1.57515943    
   1.15368605      -1.51592600      -0.00000000       1516.42883       1.57515943    
   1.29255998      -1.39939702      -0.00000000       1868.11597       1.57433915    
   1.24750996      -1.43970299      -0.00000000       1868.11597       1.57433915    
   0.00000000       0.00000000       0.00000000       1868.11597       1.57433915    
   1.33631003      -1.35768199      -0.00000000       1868.11597       1.57433915    
   0.00000000       0.00000000       0.00000000       1696.94849       1.57469749    
   1.24750996      -1.43970299      -0.00000000       1696.94849       1.57469749    
   1.20120299      -1.47855902      -0.00000000       1696.94849       1.57469749    