 VARIABLES="X" "Y" "Z" "abs(p) (Pa)" "angle(p) (rad)"
ZONE N=    802,E =     800, F=FEPOINT, ET=QUADRILATERAL
   1.90499997       0.00000000      -0.00000000       323.412781       1.57722664    
   1.90404105      -6.04420006E-02  -0.00000000       323.412781       1.57722664    
   0.00000000       0.00000000       0.00000000       323.412781       1.57722664    
   1.90404105       6.04420006E-02  -0.00000000       323.412781       1.57722664    
   1.88967395      0.241159007      -0.00000000       322.749634       1.57718742    
   1.89637399      0.181081995      -0.00000000       322.749634       1.57718742    
   0.00000000       0.00000000       0.00000000       322.749634       1.57718742    
   1.88107097      0.300992996      -0.00000000       322.749634       1.57718742    
   0.00000000       0.00000000       0.00000000       323.230042       1.57721710    
   1.89637399      0.181081995      -0.00000000       323.230042       1.57721710    
   1.90116501      0.120823003      -0.00000000       323.230042       1.57721710    
   1.90404105       6.04420006E-02  -0.00000000       323.230042       1.57721710    
   1.87057400      0.360523999      -0.00000000       322.255615       1.57712853    
   1.88107097      0.300992996      -0.00000000       322.255615       1.57712853    
   0.00000000       0.00000000       0.00000000       322.255615       1.57712853    
   1.85819399      0.419692010      -0.00000000       322.255615       1.57712853    
   1.80988598      0.594424009      -0.00000000       321.873352       1.57690465    
   1.82783401      0.536701024      -0.00000000       321.873352       1.57690465    
   0.00000000       0.00000000       0.00000000       321.873352       1.57690465    
   1.79011405      0.651548028      -0.00000000       321.873352       1.57690465    
   0.00000000       0.00000000       0.00000000       321.858337       1.57703769    
   1.82783401      0.536701024      -0.00000000       321.858337       1.57703769    
   1.84394205      0.478437006      -0.00000000       321.858337       1.57703769    
   1.85819399      0.419692010      -0.00000000       321.858337       1.57703769    
   1.76854098      0.708016992      -0.00000000       322.774780       1.57671642    
   1.79011405      0.651548028      -0.00000000       322.774780       1.57671642    
   0.00000000       0.00000000       0.00000000       322.774780       1.57671642    
   1.74518704      0.763773024      -0.00000000       322.774780       1.57671642    
   1.66468298      0.926204979      -0.00000000       327.510315       1.57617342    
   1.69323206      0.872922003      -0.00000000       327.510315       1.57617342    
   0.00000000       0.00000000       0.00000000       327.510315       1.57617342    
   1.63445795      0.978555024      -0.00000000       327.510315       1.57617342    
   0.00000000       0.00000000       0.00000000       324.650452       1.57647228    
   1.69323206      0.872922003      -0.00000000       324.650452       1.57647228    
   1.72007501      0.818759024      -0.00000000       324.650452       1.57647228    
   1.74518704      0.763773024      -0.00000000       324.650452       1.57647228    
   1.60258806       1.02992105      -0.00000000       330.929016       1.57583404    
   1.63445795      0.978555024      -0.00000000       330.929016       1.57583404    
   0.00000000       0.00000000       0.00000000       330.929016       1.57583404    
   1.56910396       1.08024895      -0.00000000       330.929016       1.57583404    
   1.45931494       1.22450995      -0.00000000       336.131317       1.57512498    
   1.49743104       1.17759299      -0.00000000       336.131317       1.57512498    
   0.00000000       0.00000000       0.00000000       336.131317       1.57512498    
   1.41972899       1.27019501      -0.00000000       336.131317       1.57512498    
   0.00000000       0.00000000       0.00000000       334.398499       1.57546914    
   1.49743104       1.17759299      -0.00000000       334.398499       1.57546914    
   1.53403997       1.12949002      -0.00000000       334.398499       1.57546914    
   1.56910396       1.08024895      -0.00000000       334.398499       1.57546914    
   1.37871301       1.31459999      -0.00000000       330.058777       1.57495379    
   1.41972899       1.27019501      -0.00000000       330.058777       1.57495379    
   0.00000000       0.00000000       0.00000000       330.058777       1.57495379    
   1.33631003       1.35768199      -0.00000000       330.058777       1.57495379    
   1.20120299       1.47855902      -0.00000000       278.932770       1.57566190    
   1.24750996       1.43970299      -0.00000000       278.932770       1.57566190    
   0.00000000       0.00000000       0.00000000       278.932770       1.57566190    
   1.15368605       1.51592600      -0.00000000       278.932770       1.57566190    
   0.00000000       0.00000000       0.00000000       308.422729       1.57517731    
   1.24750996       1.43970299      -0.00000000       308.422729       1.57517731    
   1.29255998       1.39939702      -0.00000000       308.422729       1.57517731    
   1.33631003       1.35768199      -0.00000000       308.422729       1.57517731    
   1.10500801       1.55176699      -0.00000000       248.319046       1.57627416    
   1.15368605       1.51592600      -0.00000000       248.319046       1.57627416    
   0.00000000       0.00000000       0.00000000       248.319046       1.57627416    
   1.05521798       1.58604598      -0.00000000       248.319046       1.57627416    
  0.899676025       1.67916906      -0.00000000       189.568878       1.57784629    
  0.952499986       1.64977801      -0.00000000       189.568878       1.57784629    
   0.00000000       0.00000000       0.00000000       189.568878       1.57784629    
  0.845947027       1.70686805      -0.00000000       189.568878       1.57784629    
   0.00000000       0.00000000       0.00000000       218.367111       1.57699478    
  0.952499986       1.64977801      -0.00000000       218.367111       1.57699478    
   1.00436401       1.61872697      -0.00000000       218.367111       1.57699478    
   1.05521798       1.58604598      -0.00000000       218.367111       1.57699478    
  0.791365981       1.73284900      -0.00000000       162.287369       1.57885861    
  0.845947027       1.70686805      -0.00000000       162.287369       1.57885861    
   0.00000000       0.00000000       0.00000000       162.287369       1.57885861    
  0.735987008       1.75708497      -0.00000000       162.287369       1.57885861    
  0.565632999       1.81908906      -0.00000000       111.481453       1.58180130    
  0.623063982       1.80022705      -0.00000000       111.481453       1.58180130    
   0.00000000       0.00000000       0.00000000       111.481453       1.58180130    
  0.507632971       1.83611906      -0.00000000       111.481453       1.58180130    
   0.00000000       0.00000000       0.00000000       136.341736       1.58012044    
  0.623063982       1.80022705      -0.00000000       136.341736       1.58012044    
  0.679867983       1.77955198      -0.00000000       136.341736       1.58012044    
  0.735987008       1.75708497      -0.00000000       136.341736       1.58012044    
  0.449120998       1.85130095      -0.00000000       87.3845749       1.58426654    
  0.507632971       1.83611906      -0.00000000       87.3845749       1.58426654    
   0.00000000       0.00000000       0.00000000       87.3845749       1.58426654    
  0.390157014       1.86461902      -0.00000000       87.3845749       1.58426654    
  0.211146995       1.89326203      -0.00000000       40.7975349       1.59694791    
  0.271109998       1.88560998      -0.00000000       40.7975349       1.59694791    
   0.00000000       0.00000000       0.00000000       40.7975349       1.59694791    
  0.150970995       1.89900804      -0.00000000       40.7975349       1.59694791    
   0.00000000       0.00000000       0.00000000       63.8890991       1.58837974    
  0.271109998       1.88560998      -0.00000000       63.8890991       1.58837974    
  0.330799997       1.87605906      -0.00000000       63.8890991       1.58837974    
  0.390157014       1.86461902      -0.00000000       63.8890991       1.58837974    
   9.06440020E-02   1.90284204      -0.00000000       17.8117123       1.62747765    
  0.150970995       1.89900804      -0.00000000       17.8117123       1.62747765    
   0.00000000       0.00000000       0.00000000       17.8117123       1.62747765    
   3.02249994E-02   1.90476000      -0.00000000       17.8117123       1.62747765    
 -0.150970995       1.89900804      -0.00000000       28.1145134      -1.60254586    
  -9.06440020E-02   1.90284204      -0.00000000       28.1145134      -1.60254586    
   0.00000000       0.00000000       0.00000000       28.1145134      -1.60254586    
 -0.211146995       1.89326203      -0.00000000       28.1145134      -1.60254586    
   0.00000000       0.00000000       0.00000000       5.26702118      -1.75230908    
  -9.06440020E-02   1.90284204      -0.00000000       5.26702118      -1.75230908    
  -3.02249994E-02   1.90476000      -0.00000000       5.26702118      -1.75230908    
   3.02249994E-02   1.90476000      -0.00000000       5.26702118      -1.75230908    
 -0.271109998       1.88560998      -0.00000000       51.2074394      -1.58710873    
 -0.211146995       1.89326203      -0.00000000       51.2074394      -1.58710873    
   0.00000000       0.00000000       0.00000000       51.2074394      -1.58710873    
 -0.330799997       1.87605906      -0.00000000       51.2074394      -1.58710873    
 -0.507632971       1.83611906      -0.00000000       98.9820328      -1.57816541    
 -0.449120998       1.85130095      -0.00000000       98.9820328      -1.57816541    
   0.00000000       0.00000000       0.00000000       98.9820328      -1.57816541    
 -0.565632999       1.81908906      -0.00000000       98.9820328      -1.57816541    
   0.00000000       0.00000000       0.00000000       74.8089905      -1.58123219    
 -0.449120998       1.85130095      -0.00000000       74.8089905      -1.58123219    
 -0.390157014       1.86461902      -0.00000000       74.8089905      -1.58123219    
 -0.330799997       1.87605906      -0.00000000       74.8089905      -1.58123219    
 -0.623063982       1.80022705      -0.00000000       123.925865      -1.57630777    
 -0.565632999       1.81908906      -0.00000000       123.925865      -1.57630777    
   0.00000000       0.00000000       0.00000000       123.925865      -1.57630777    
 -0.679867983       1.77955198      -0.00000000       123.925865      -1.57630777    
 -0.845947027       1.70686805      -0.00000000       177.281738      -1.57424867    
 -0.791365981       1.73284900      -0.00000000       177.281738      -1.57424867    
   0.00000000       0.00000000       0.00000000       177.281738      -1.57424867    
 -0.899676025       1.67916906      -0.00000000       177.281738      -1.57424867    
   0.00000000       0.00000000       0.00000000       150.003586      -1.57508636    
 -0.791365981       1.73284900      -0.00000000       150.003586      -1.57508636    
 -0.735987008       1.75708497      -0.00000000       150.003586      -1.57508636    
 -0.679867983       1.77955198      -0.00000000       150.003586      -1.57508636    
 -0.952499986       1.64977801      -0.00000000       205.808411      -1.57366228    
 -0.899676025       1.67916906      -0.00000000       205.808411      -1.57366228    
   0.00000000       0.00000000       0.00000000       205.808411      -1.57366228    
  -1.00436401       1.61872697      -0.00000000       205.808411      -1.57366228    
  -1.15368605       1.51592600      -0.00000000       264.822357      -1.57295299    
  -1.10500801       1.55176699      -0.00000000       264.822357      -1.57295299    
   0.00000000       0.00000000       0.00000000       264.822357      -1.57295299    
  -1.20120299       1.47855902      -0.00000000       264.822357      -1.57295299    
   0.00000000       0.00000000       0.00000000       235.169540      -1.57324755    
  -1.10500801       1.55176699      -0.00000000       235.169540      -1.57324755    
  -1.05521798       1.58604598      -0.00000000       235.169540      -1.57324755    
  -1.00436401       1.61872697      -0.00000000       235.169540      -1.57324755    
  -1.24750996       1.43970299      -0.00000000       292.988342      -1.57273269    
  -1.20120299       1.47855902      -0.00000000       292.988342      -1.57273269    
   0.00000000       0.00000000       0.00000000       292.988342      -1.57273269    
  -1.29255998       1.39939702      -0.00000000       292.988342      -1.57273269    
  -1.41972899       1.27019501      -0.00000000       319.351410      -1.57222486    
  -1.37871301       1.31459999      -0.00000000       319.351410      -1.57222486    
   0.00000000       0.00000000       0.00000000       319.351410      -1.57222486    
  -1.45931494       1.22450995      -0.00000000       319.351410      -1.57222486    
   0.00000000       0.00000000       0.00000000       313.671295      -1.57251799    
  -1.37871301       1.31459999      -0.00000000       313.671295      -1.57251799    
  -1.33631003       1.35768199      -0.00000000       313.671295      -1.57251799    
  -1.29255998       1.39939702      -0.00000000       313.671295      -1.57251799    
  -1.49743104       1.17759299      -0.00000000       317.358704      -1.57189381    
  -1.45931494       1.22450995      -0.00000000       317.358704      -1.57189381    
   0.00000000       0.00000000       0.00000000       317.358704      -1.57189381    
  -1.53403997       1.12949002      -0.00000000       317.358704      -1.57189381    
  -1.63445795      0.978555024      -0.00000000       311.155029      -1.57128131    
  -1.60258806       1.02992105      -0.00000000       311.155029      -1.57128131    
   0.00000000       0.00000000       0.00000000       311.155029      -1.57128131    
  -1.66468298      0.926204979      -0.00000000       311.155029      -1.57128131    
   0.00000000       0.00000000       0.00000000       314.068573      -1.57157385    
  -1.60258806       1.02992105      -0.00000000       314.068573      -1.57157385    
  -1.56910396       1.08024895      -0.00000000       314.068573      -1.57157385    
  -1.53403997       1.12949002      -0.00000000       314.068573      -1.57157385    
  -1.69323206      0.872922003      -0.00000000       309.064453      -1.57102275    
  -1.66468298      0.926204979      -0.00000000       309.064453      -1.57102275    
   0.00000000       0.00000000       0.00000000       309.064453      -1.57102275    
  -1.72007501      0.818759024      -0.00000000       309.064453      -1.57102275    
  -1.79011405      0.651548028      -0.00000000       308.159973      -1.57062352    
  -1.76854098      0.708016992      -0.00000000       308.159973      -1.57062352    
   0.00000000       0.00000000       0.00000000       308.159973      -1.57062352    
  -1.80988598      0.594424009      -0.00000000       308.159973      -1.57062352    
   0.00000000       0.00000000       0.00000000       308.101196      -1.57080305    
  -1.76854098      0.708016992      -0.00000000       308.101196      -1.57080305    
  -1.74518704      0.763773024      -0.00000000       308.101196      -1.57080305    
  -1.72007501      0.818759024      -0.00000000       308.101196      -1.57080305    
  -1.82783401      0.536701024      -0.00000000       308.924103      -1.57048237    
  -1.80988598      0.594424009      -0.00000000       308.924103      -1.57048237    
   0.00000000       0.00000000       0.00000000       308.924103      -1.57048237    
  -1.84394205      0.478437006      -0.00000000       308.924103      -1.57048237    
  -1.88107097      0.300992996      -0.00000000       311.086121      -1.57029819    
  -1.87057400      0.360523999      -0.00000000       311.086121      -1.57029819    
   0.00000000       0.00000000       0.00000000       311.086121      -1.57029819    
  -1.88967395      0.241159007      -0.00000000       311.086121      -1.57029819    
   0.00000000       0.00000000       0.00000000       309.969635      -1.57037437    
  -1.87057400      0.360523999      -0.00000000       309.969635      -1.57037437    
  -1.85819399      0.419692010      -0.00000000       309.969635      -1.57037437    
  -1.84394205      0.478437006      -0.00000000       309.969635      -1.57037437    
  -1.89637399      0.181081995      -0.00000000       311.992798      -1.57024932    
  -1.88967395      0.241159007      -0.00000000       311.992798      -1.57024932    
   0.00000000       0.00000000       0.00000000       311.992798      -1.57024932    
  -1.90116501      0.120823003      -0.00000000       311.992798      -1.57024932    
  -1.90404105      -6.04420006E-02  -0.00000000       312.544495      -1.57022667    
  -1.90499997       0.00000000      -0.00000000       312.544495      -1.57022667    
   0.00000000       0.00000000       0.00000000       312.544495      -1.57022667    
  -1.90116501     -0.120823003      -0.00000000       312.544495      -1.57022667    
   0.00000000       0.00000000       0.00000000       312.501617      -1.57022583    
  -1.90499997       0.00000000      -0.00000000       312.501617      -1.57022583    
  -1.90404105       6.04420006E-02  -0.00000000       312.501617      -1.57022583    
  -1.90116501      0.120823003      -0.00000000       312.501617      -1.57022583    
  -1.89637399     -0.181081995      -0.00000000       312.180450      -1.57025170    
  -1.90116501     -0.120823003      -0.00000000       312.180450      -1.57025170    
   0.00000000       0.00000000       0.00000000       312.180450      -1.57025170    
  -1.88967395     -0.241159007      -0.00000000       312.180450      -1.57025170    
  -1.85819399     -0.419692010      -0.00000000       310.642059      -1.57038212    
  -1.87057400     -0.360523999      -0.00000000       310.642059      -1.57038212    
   0.00000000       0.00000000       0.00000000       310.642059      -1.57038212    
  -1.84394205     -0.478437006      -0.00000000       310.642059      -1.57038212    
   0.00000000       0.00000000       0.00000000       311.437195      -1.57030249    
  -1.87057400     -0.360523999      -0.00000000       311.437195      -1.57030249    
  -1.88107097     -0.300992996      -0.00000000       311.437195      -1.57030249    
  -1.88967395     -0.241159007      -0.00000000       311.437195      -1.57030249    
  -1.82783401     -0.536701024      -0.00000000       309.939819      -1.57049286    
  -1.84394205     -0.478437006      -0.00000000       309.939819      -1.57049286    
   0.00000000       0.00000000       0.00000000       309.939819      -1.57049286    
  -1.80988598     -0.594424009      -0.00000000       309.939819      -1.57049286    
  -1.74518704     -0.763773024      -0.00000000       310.161682      -1.57082117    
  -1.76854098     -0.708016992      -0.00000000       310.161682      -1.57082117    
   0.00000000       0.00000000       0.00000000       310.161682      -1.57082117    
  -1.72007501     -0.818759024      -0.00000000       310.161682      -1.57082117    
   0.00000000       0.00000000       0.00000000       309.630463      -1.57063794    
  -1.76854098     -0.708016992      -0.00000000       309.630463      -1.57063794    
  -1.79011405     -0.651548028      -0.00000000       309.630463      -1.57063794    
  -1.80988598     -0.594424009      -0.00000000       309.630463      -1.57063794    
  -1.69323206     -0.872922003      -0.00000000       311.549286      -1.57104194    
  -1.72007501     -0.818759024      -0.00000000       311.549286      -1.57104194    
   0.00000000       0.00000000       0.00000000       311.549286      -1.57104194    
  -1.66468298     -0.926204979      -0.00000000       311.549286      -1.57104194    
  -1.56910396      -1.08024895      -0.00000000       316.597626      -1.57158709    
  -1.60258806      -1.02992105      -0.00000000       316.597626      -1.57158709    
   0.00000000       0.00000000       0.00000000       316.597626      -1.57158709    
  -1.53403997      -1.12949002      -0.00000000       316.597626      -1.57158709    
   0.00000000       0.00000000       0.00000000       313.820801      -1.57129943    
  -1.60258806      -1.02992105      -0.00000000       313.820801      -1.57129943    
  -1.63445795     -0.978555024      -0.00000000       313.820801      -1.57129943    
  -1.66468298     -0.926204979      -0.00000000       313.820801      -1.57129943    
  -1.49743104      -1.17759299      -0.00000000       319.376831      -1.57190049    
  -1.53403997      -1.12949002      -0.00000000       319.376831      -1.57190049    
   0.00000000       0.00000000       0.00000000       319.376831      -1.57190049    
  -1.45931494      -1.22450995      -0.00000000       319.376831      -1.57190049    
  -1.33631003      -1.35768199      -0.00000000       313.814087      -1.57251596    
  -1.37871301      -1.31459999      -0.00000000       313.814087      -1.57251596    
   0.00000000       0.00000000       0.00000000       313.814087      -1.57251596    
  -1.29255998      -1.39939702      -0.00000000       313.814087      -1.57251596    
   0.00000000       0.00000000       0.00000000       320.421509      -1.57222438    
  -1.37871301      -1.31459999      -0.00000000       320.421509      -1.57222438    
  -1.41972899      -1.27019501      -0.00000000       320.421509      -1.57222438    
  -1.45931494      -1.22450995      -0.00000000       320.421509      -1.57222438    
  -1.24750996      -1.43970299      -0.00000000       292.090942      -1.57273257    
  -1.29255998      -1.39939702      -0.00000000       292.090942      -1.57273257    
   0.00000000       0.00000000       0.00000000       292.090942      -1.57273257    
  -1.20120299      -1.47855902      -0.00000000       292.090942      -1.57273257    
  -1.05521798      -1.58604598      -0.00000000       232.463531      -1.57325423    
  -1.10500801      -1.55176699      -0.00000000       232.463531      -1.57325423    
   0.00000000       0.00000000       0.00000000       232.463531      -1.57325423    
  -1.00436401      -1.61872697      -0.00000000       232.463531      -1.57325423    
   0.00000000       0.00000000       0.00000000       262.820892      -1.57295454    
  -1.10500801      -1.55176699      -0.00000000       262.820892      -1.57295454    
  -1.15368605      -1.51592600      -0.00000000       262.820892      -1.57295454    
  -1.20120299      -1.47855902      -0.00000000       262.820892      -1.57295454    
 -0.952499986      -1.64977801      -0.00000000       202.745331      -1.57367849    
  -1.00436401      -1.61872697      -0.00000000       202.745331      -1.57367849    
   0.00000000       0.00000000       0.00000000       202.745331      -1.57367849    
 -0.899676025      -1.67916906      -0.00000000       202.745331      -1.57367849    
 -0.735987008      -1.75708497      -0.00000000       147.039902      -1.57514346    
 -0.791365981      -1.73284900      -0.00000000       147.039902      -1.57514346    
   0.00000000       0.00000000       0.00000000       147.039902      -1.57514346    
 -0.679867983      -1.77955198      -0.00000000       147.039902      -1.57514346    
   0.00000000       0.00000000       0.00000000       174.153809      -1.57428098    
 -0.791365981      -1.73284900      -0.00000000       174.153809      -1.57428098    
 -0.845947027      -1.70686805      -0.00000000       174.153809      -1.57428098    
 -0.899676025      -1.67916906      -0.00000000       174.153809      -1.57428098    
 -0.623063982      -1.80022705      -0.00000000       121.229317      -1.57640302    
 -0.679867983      -1.77955198      -0.00000000       121.229317      -1.57640302    
   0.00000000       0.00000000       0.00000000       121.229317      -1.57640302    
 -0.565632999      -1.81908906      -0.00000000       121.229317      -1.57640302    
 -0.390157014      -1.86461902      -0.00000000       72.4903259      -1.58153772    
 -0.449120998      -1.85130095      -0.00000000       72.4903259      -1.58153772    
   0.00000000       0.00000000       0.00000000       72.4903259      -1.58153772    
 -0.330799997      -1.87605906      -0.00000000       72.4903259      -1.58153772    
   0.00000000       0.00000000       0.00000000       96.4844589      -1.57832956    
 -0.449120998      -1.85130095      -0.00000000       96.4844589      -1.57832956    
 -0.507632971      -1.83611906      -0.00000000       96.4844589      -1.57832956    
 -0.565632999      -1.81908906      -0.00000000       96.4844589      -1.57832956    
 -0.271109998      -1.88560998      -0.00000000       49.0852432      -1.58778751    
 -0.330799997      -1.87605906      -0.00000000       49.0852432      -1.58778751    
   0.00000000       0.00000000       0.00000000       49.0852432      -1.58778751    
 -0.211146995      -1.89326203      -0.00000000       49.0852432      -1.58778751    
  -3.02249994E-02  -1.90476000      -0.00000000       3.23564887      -1.86868656    
  -9.06440020E-02  -1.90284204      -0.00000000       3.23564887      -1.86868656    
   0.00000000       0.00000000       0.00000000       3.23564887      -1.86868656    
   3.02249994E-02  -1.90476000      -0.00000000       3.23564887      -1.86868656    
   0.00000000       0.00000000       0.00000000       26.0759430      -1.60499024    
  -9.06440020E-02  -1.90284204      -0.00000000       26.0759430      -1.60499024    
 -0.150970995      -1.89900804      -0.00000000       26.0759430      -1.60499024    
 -0.211146995      -1.89326203      -0.00000000       26.0759430      -1.60499024    
   9.06440020E-02  -1.90284204      -0.00000000       19.9080486       1.62144887    
   3.02249994E-02  -1.90476000      -0.00000000       19.9080486       1.62144887    
   0.00000000       0.00000000       0.00000000       19.9080486       1.62144887    
  0.150970995      -1.89900804      -0.00000000       19.9080486       1.62144887    
  0.330799997      -1.87605906      -0.00000000       66.0702667       1.58777678    
  0.271109998      -1.88560998      -0.00000000       66.0702667       1.58777678    
   0.00000000       0.00000000       0.00000000       66.0702667       1.58777678    
  0.390157014      -1.86461902      -0.00000000       66.0702667       1.58777678    
   0.00000000       0.00000000       0.00000000       42.8861694       1.59564734    
  0.271109998      -1.88560998      -0.00000000       42.8861694       1.59564734    
  0.211146995      -1.89326203      -0.00000000       42.8861694       1.59564734    
  0.150970995      -1.89900804      -0.00000000       42.8861694       1.59564734    
  0.449120998      -1.85130095      -0.00000000       89.7866974       1.58388150    
  0.390157014      -1.86461902      -0.00000000       89.7866974       1.58388150    
   0.00000000       0.00000000       0.00000000       89.7866974       1.58388150    
  0.507632971      -1.83611906      -0.00000000       89.7866974       1.58388150    
  0.679867983      -1.77955198      -0.00000000       139.175705       1.57990336    
  0.623063982      -1.80022705      -0.00000000       139.175705       1.57990336    
   0.00000000       0.00000000       0.00000000       139.175705       1.57990336    
  0.735987008      -1.75708497      -0.00000000       139.175705       1.57990336    
   0.00000000       0.00000000       0.00000000       114.086792       1.58152342    
  0.623063982      -1.80022705      -0.00000000       114.086792       1.58152342    
  0.565632999      -1.81908906      -0.00000000       114.086792       1.58152342    
  0.507632971      -1.83611906      -0.00000000       114.086792       1.58152342    
  0.791365981      -1.73284900      -0.00000000       165.424973       1.57867515    
  0.735987008      -1.75708497      -0.00000000       165.424973       1.57867515    
   0.00000000       0.00000000       0.00000000       165.424973       1.57867515    
  0.845947027      -1.70686805      -0.00000000       165.424973       1.57867515    
   1.00436401      -1.61872697      -0.00000000       221.657700       1.57687485    
  0.952499986      -1.64977801      -0.00000000       221.657700       1.57687485    
   0.00000000       0.00000000       0.00000000       221.657700       1.57687485    
   1.05521798      -1.58604598      -0.00000000       221.657700       1.57687485    
   0.00000000       0.00000000       0.00000000       192.899734       1.57769418    
  0.952499986      -1.64977801      -0.00000000       192.899734       1.57769418    
  0.899676025      -1.67916906      -0.00000000       192.899734       1.57769418    
  0.845947027      -1.70686805      -0.00000000       192.899734       1.57769418    
   1.10500801      -1.55176699      -0.00000000       251.267212       1.57618701    
   1.05521798      -1.58604598      -0.00000000       251.267212       1.57618701    
   0.00000000       0.00000000       0.00000000       251.267212       1.57618701    
   1.15368605      -1.51592600      -0.00000000       251.267212       1.57618701    
   1.29255998      -1.39939702      -0.00000000       309.560883       1.57515419    
   1.24750996      -1.43970299      -0.00000000       309.560883       1.57515419    
   0.00000000       0.00000000       0.00000000       309.560883       1.57515419    
   1.33631003      -1.35768199      -0.00000000       309.560883       1.57515419    
   0.00000000       0.00000000       0.00000000       281.180450       1.57560742    
   1.24750996      -1.43970299      -0.00000000       281.180450       1.57560742    
   1.20120299      -1.47855902      -0.00000000       281.180450       1.57560742    