 VARIABLES="X" "Y" "Z" "abs(p) (Pa)" "angle(p) (rad)"
ZONE N=    802,E =     800, F=FEPOINT, ET=QUADRILATERAL
   1.90499997       0.00000000      -0.00000000       4049.28979       1.60925817    
   1.90404105      -6.04420006E-02  -0.00000000       4049.28979       1.60925817    
   0.00000000       0.00000000       0.00000000       4049.28979       1.60925817    
   1.90404105       6.04420006E-02  -0.00000000       4049.28979       1.60925817    
   1.88967395      0.241159007      -0.00000000       4041.98340       1.60843217    
   1.89637399      0.181081995      -0.00000000       4041.98340       1.60843217    
   0.00000000       0.00000000       0.00000000       4041.98340       1.60843217    
   1.88107097      0.300992996      -0.00000000       4041.98340       1.60843217    
   0.00000000       0.00000000       0.00000000       4047.68359       1.60905421    
   1.89637399      0.181081995      -0.00000000       4047.68359       1.60905421    
   1.90116501      0.120823003      -0.00000000       4047.68359       1.60905421    
   1.90404105       6.04420006E-02  -0.00000000       4047.68359       1.60905421    
   1.87057400      0.360523999      -0.00000000       4035.05029       1.60731280    
   1.88107097      0.300992996      -0.00000000       4035.05029       1.60731280    
   0.00000000       0.00000000       0.00000000       4035.05029       1.60731280    
   1.85819399      0.419692010      -0.00000000       4035.05029       1.60731280    
   1.80988598      0.594424009      -0.00000000       4055.24194       1.60249424    
   1.82783401      0.536701024      -0.00000000       4055.24194       1.60249424    
   0.00000000       0.00000000       0.00000000       4055.24194       1.60249424    
   1.79011405      0.651548028      -0.00000000       4055.24194       1.60249424    
   0.00000000       0.00000000       0.00000000       4037.00195       1.60540032    
   1.82783401      0.536701024      -0.00000000       4037.00195       1.60540032    
   1.84394205      0.478437006      -0.00000000       4037.00195       1.60540032    
   1.85819399      0.419692010      -0.00000000       4037.00195       1.60540032    
   1.76854098      0.708016992      -0.00000000       4094.93042       1.59846377    
   1.79011405      0.651548028      -0.00000000       4094.93042       1.59846377    
   0.00000000       0.00000000       0.00000000       4094.93042       1.59846377    
   1.74518704      0.763773024      -0.00000000       4094.93042       1.59846377    
   1.66468298      0.926204979      -0.00000000       4260.26270       1.58676422    
   1.69323206      0.872922003      -0.00000000       4260.26270       1.58676422    
   0.00000000       0.00000000       0.00000000       4260.26270       1.58676422    
   1.63445795      0.978555024      -0.00000000       4260.26270       1.58676422    
   0.00000000       0.00000000       0.00000000       4162.82275       1.59318495    
   1.69323206      0.872922003      -0.00000000       4162.82275       1.59318495    
   1.72007501      0.818759024      -0.00000000       4162.82275       1.59318495    
   1.74518704      0.763773024      -0.00000000       4162.82275       1.59318495    
   1.60258806       1.02992105      -0.00000000       4381.16406       1.57946146    
   1.63445795      0.978555024      -0.00000000       4381.16406       1.57946146    
   0.00000000       0.00000000       0.00000000       4381.16406       1.57946146    
   1.56910396       1.08024895      -0.00000000       4381.16406       1.57946146    
   1.45931494       1.22450995      -0.00000000       4608.31592       1.56447160    
   1.49743104       1.17759299      -0.00000000       4608.31592       1.56447160    
   0.00000000       0.00000000       0.00000000       4608.31592       1.56447160    
   1.41972899       1.27019501      -0.00000000       4608.31592       1.56447160    
   0.00000000       0.00000000       0.00000000       4507.66943       1.57180524    
   1.49743104       1.17759299      -0.00000000       4507.66943       1.57180524    
   1.53403997       1.12949002      -0.00000000       4507.66943       1.57180524    
   1.56910396       1.08024895      -0.00000000       4507.66943       1.57180524    
   1.37871301       1.31459999      -0.00000000       4573.68848       1.55971074    
   1.41972899       1.27019501      -0.00000000       4573.68848       1.55971074    
   0.00000000       0.00000000       0.00000000       4573.68848       1.55971074    
   1.33631003       1.35768199      -0.00000000       4573.68848       1.55971074    
   1.20120299       1.47855902      -0.00000000       3836.45825       1.56395996    
   1.24750996       1.43970299      -0.00000000       3836.45825       1.56395996    
   0.00000000       0.00000000       0.00000000       3836.45825       1.56395996    
   1.15368605       1.51592600      -0.00000000       3836.45825       1.56395996    
   0.00000000       0.00000000       0.00000000       4273.80615       1.56029403    
   1.24750996       1.43970299      -0.00000000       4273.80615       1.56029403    
   1.29255998       1.39939702      -0.00000000       4273.80615       1.56029403    
   1.33631003       1.35768199      -0.00000000       4273.80615       1.56029403    
   1.10500801       1.55176699      -0.00000000       3379.90674       1.56847584    
   1.15368605       1.51592600      -0.00000000       3379.90674       1.56847584    
   0.00000000       0.00000000       0.00000000       3379.90674       1.56847584    
   1.05521798       1.58604598      -0.00000000       3379.90674       1.56847584    
  0.899676025       1.67916906      -0.00000000       2525.21240       1.57776868    
  0.952499986       1.64977801      -0.00000000       2525.21240       1.57776868    
   0.00000000       0.00000000       0.00000000       2525.21240       1.57776868    
  0.845947027       1.70686805      -0.00000000       2525.21240       1.57776868    
   0.00000000       0.00000000       0.00000000       2936.45386       1.57325864    
  0.952499986       1.64977801      -0.00000000       2936.45386       1.57325864    
   1.00436401       1.61872697      -0.00000000       2936.45386       1.57325864    
   1.05521798       1.58604598      -0.00000000       2936.45386       1.57325864    
  0.791365981       1.73284900      -0.00000000       2146.50049       1.58182681    
  0.845947027       1.70686805      -0.00000000       2146.50049       1.58182681    
   0.00000000       0.00000000       0.00000000       2146.50049       1.58182681    
  0.735987008       1.75708497      -0.00000000       2146.50049       1.58182681    
  0.565632999       1.81908906      -0.00000000       1466.46008       1.58845425    
  0.623063982       1.80022705      -0.00000000       1466.46008       1.58845425    
   0.00000000       0.00000000       0.00000000       1466.46008       1.58845425    
  0.507632971       1.83611906      -0.00000000       1466.46008       1.58845425    
   0.00000000       0.00000000       0.00000000       1796.00708       1.58533394    
  0.623063982       1.80022705      -0.00000000       1796.00708       1.58533394    
  0.679867983       1.77955198      -0.00000000       1796.00708       1.58533394    
  0.735987008       1.75708497      -0.00000000       1796.00708       1.58533394    
  0.449120998       1.85130095      -0.00000000       1150.20667       1.59163892    
  0.507632971       1.83611906      -0.00000000       1150.20667       1.59163892    
   0.00000000       0.00000000       0.00000000       1150.20667       1.59163892    
  0.390157014       1.86461902      -0.00000000       1150.20667       1.59163892    
  0.211146995       1.89326203      -0.00000000       530.153687       1.60485399    
  0.271109998       1.88560998      -0.00000000       530.153687       1.60485399    
   0.00000000       0.00000000       0.00000000       530.153687       1.60485399    
  0.150970995       1.89900804      -0.00000000       530.153687       1.60485399    
   0.00000000       0.00000000       0.00000000       839.560303       1.59600174    
  0.271109998       1.88560998      -0.00000000       839.560303       1.59600174    
  0.330799997       1.87605906      -0.00000000       839.560303       1.59600174    
  0.390157014       1.86461902      -0.00000000       839.560303       1.59600174    
   9.06440020E-02   1.90284204      -0.00000000       223.855194       1.63606453    
  0.150970995       1.89900804      -0.00000000       223.855194       1.63606453    
   0.00000000       0.00000000       0.00000000       223.855194       1.63606453    
   3.02249994E-02   1.90476000      -0.00000000       223.855194       1.63606453    
 -0.150970995       1.89900804      -0.00000000       388.823395      -1.59010398    
  -9.06440020E-02   1.90284204      -0.00000000       388.823395      -1.59010398    
   0.00000000       0.00000000       0.00000000       388.823395      -1.59010398    
 -0.211146995       1.89326203      -0.00000000       388.823395      -1.59010398    
   0.00000000       0.00000000       0.00000000       82.6897430      -1.70432615    
  -9.06440020E-02   1.90284204      -0.00000000       82.6897430      -1.70432615    
  -3.02249994E-02   1.90476000      -0.00000000       82.6897430      -1.70432615    
   3.02249994E-02   1.90476000      -0.00000000       82.6897430      -1.70432615    
 -0.271109998       1.88560998      -0.00000000       697.169006      -1.57682371    
 -0.211146995       1.89326203      -0.00000000       697.169006      -1.57682371    
   0.00000000       0.00000000       0.00000000       697.169006      -1.57682371    
 -0.330799997       1.87605906      -0.00000000       697.169006      -1.57682371    
 -0.507632971       1.83611906      -0.00000000       1322.42041      -1.56992435    
 -0.449120998       1.85130095      -0.00000000       1322.42041      -1.56992435    
   0.00000000       0.00000000       0.00000000       1322.42041      -1.56992435    
 -0.565632999       1.81908906      -0.00000000       1322.42041      -1.56992435    
   0.00000000       0.00000000       0.00000000       1006.08197      -1.57186103    
 -0.449120998       1.85130095      -0.00000000       1006.08197      -1.57186103    
 -0.390157014       1.86461902      -0.00000000       1006.08197      -1.57186103    
 -0.330799997       1.87605906      -0.00000000       1006.08197      -1.57186103    
 -0.623063982       1.80022705      -0.00000000       1653.03223      -1.56975996    
 -0.565632999       1.81908906      -0.00000000       1653.03223      -1.56975996    
   0.00000000       0.00000000       0.00000000       1653.03223      -1.56975996    
 -0.679867983       1.77955198      -0.00000000       1653.03223      -1.56975996    
 -0.845947027       1.70686805      -0.00000000       2381.17896      -1.57311487    
 -0.791365981       1.73284900      -0.00000000       2381.17896      -1.57311487    
   0.00000000       0.00000000       0.00000000       2381.17896      -1.57311487    
 -0.899676025       1.67916906      -0.00000000       2381.17896      -1.57311487    
   0.00000000       0.00000000       0.00000000       2003.55298      -1.57089126    
 -0.791365981       1.73284900      -0.00000000       2003.55298      -1.57089126    
 -0.735987008       1.75708497      -0.00000000       2003.55298      -1.57089126    
 -0.679867983       1.77955198      -0.00000000       2003.55298      -1.57089126    
 -0.952499986       1.64977801      -0.00000000       2788.79297      -1.57611966    
 -0.899676025       1.67916906      -0.00000000       2788.79297      -1.57611966    
   0.00000000       0.00000000       0.00000000       2788.79297      -1.57611966    
  -1.00436401       1.61872697      -0.00000000       2788.79297      -1.57611966    
  -1.15368605       1.51592600      -0.00000000       3658.40771      -1.58292067    
  -1.10500801       1.55176699      -0.00000000       3658.40771      -1.58292067    
   0.00000000       0.00000000       0.00000000       3658.40771      -1.58292067    
  -1.20120299       1.47855902      -0.00000000       3658.40771      -1.58292067    
   0.00000000       0.00000000       0.00000000       3220.22852      -1.57955503    
  -1.10500801       1.55176699      -0.00000000       3220.22852      -1.57955503    
  -1.05521798       1.58604598      -0.00000000       3220.22852      -1.57955503    
  -1.00436401       1.61872697      -0.00000000       3220.22852      -1.57955503    
  -1.24750996       1.43970299      -0.00000000       4073.45703      -1.58566201    
  -1.20120299       1.47855902      -0.00000000       4073.45703      -1.58566201    
   0.00000000       0.00000000       0.00000000       4073.45703      -1.58566201    
  -1.29255998       1.39939702      -0.00000000       4073.45703      -1.58566201    
  -1.41972899       1.27019501      -0.00000000       4388.17725      -1.58061576    
  -1.37871301       1.31459999      -0.00000000       4388.17725      -1.58061576    
   0.00000000       0.00000000       0.00000000       4388.17725      -1.58061576    
  -1.45931494       1.22450995      -0.00000000       4388.17725      -1.58061576    
   0.00000000       0.00000000       0.00000000       4358.71191      -1.58570063    
  -1.37871301       1.31459999      -0.00000000       4358.71191      -1.58570063    
  -1.33631003       1.35768199      -0.00000000       4358.71191      -1.58570063    
  -1.29255998       1.39939702      -0.00000000       4358.71191      -1.58570063    
  -1.49743104       1.17759299      -0.00000000       4284.10938      -1.57289803    
  -1.45931494       1.22450995      -0.00000000       4284.10938      -1.57289803    
   0.00000000       0.00000000       0.00000000       4284.10938      -1.57289803    
  -1.53403997       1.12949002      -0.00000000       4284.10938      -1.57289803    
  -1.63445795      0.978555024      -0.00000000       4045.39429      -1.55727649    
  -1.60258806       1.02992105      -0.00000000       4045.39429      -1.55727649    
   0.00000000       0.00000000       0.00000000       4045.39429      -1.55727649    
  -1.66468298      0.926204979      -0.00000000       4045.39429      -1.55727649    
   0.00000000       0.00000000       0.00000000       4159.14551      -1.56487226    
  -1.60258806       1.02992105      -0.00000000       4159.14551      -1.56487226    
  -1.56910396       1.08024895      -0.00000000       4159.14551      -1.56487226    
  -1.53403997       1.12949002      -0.00000000       4159.14551      -1.56487226    
  -1.69323206      0.872922003      -0.00000000       3960.29321      -1.55067503    
  -1.66468298      0.926204979      -0.00000000       3960.29321      -1.55067503    
   0.00000000       0.00000000       0.00000000       3960.29321      -1.55067503    
  -1.72007501      0.818759024      -0.00000000       3960.29321      -1.55067503    
  -1.79011405      0.651548028      -0.00000000       3874.14160      -1.54104412    
  -1.76854098      0.708016992      -0.00000000       3874.14160      -1.54104412    
   0.00000000       0.00000000       0.00000000       3874.14160      -1.54104412    
  -1.80988598      0.594424009      -0.00000000       3874.14160      -1.54104412    
   0.00000000       0.00000000       0.00000000       3903.94189      -1.54523325    
  -1.76854098      0.708016992      -0.00000000       3903.94189      -1.54523325    
  -1.74518704      0.763773024      -0.00000000       3903.94189      -1.54523325    
  -1.72007501      0.818759024      -0.00000000       3903.94189      -1.54523325    
  -1.82783401      0.536701024      -0.00000000       3864.57471      -1.53798091    
  -1.80988598      0.594424009      -0.00000000       3864.57471      -1.53798091    
   0.00000000       0.00000000       0.00000000       3864.57471      -1.53798091    
  -1.84394205      0.478437006      -0.00000000       3864.57471      -1.53798091    
  -1.88107097      0.300992996      -0.00000000       3878.80298      -1.53450322    
  -1.87057400      0.360523999      -0.00000000       3878.80298      -1.53450322    
   0.00000000       0.00000000       0.00000000       3878.80298      -1.53450322    
  -1.88967395      0.241159007      -0.00000000       3878.80298      -1.53450322    
   0.00000000       0.00000000       0.00000000       3868.49634      -1.53586698    
  -1.87057400      0.360523999      -0.00000000       3868.49634      -1.53586698    
  -1.85819399      0.419692010      -0.00000000       3868.49634      -1.53586698    
  -1.84394205      0.478437006      -0.00000000       3868.49634      -1.53586698    
  -1.89637399      0.181081995      -0.00000000       3887.60278      -1.53365088    
  -1.88967395      0.241159007      -0.00000000       3887.60278      -1.53365088    
   0.00000000       0.00000000       0.00000000       3887.60278      -1.53365088    
  -1.90116501      0.120823003      -0.00000000       3887.60278      -1.53365088    
  -1.90404105      -6.04420006E-02  -0.00000000       3894.07007      -1.53328669    
  -1.90499997       0.00000000      -0.00000000       3894.07007      -1.53328669    
   0.00000000       0.00000000       0.00000000       3894.07007      -1.53328669    
  -1.90116501     -0.120823003      -0.00000000       3894.07007      -1.53328669    
   0.00000000       0.00000000       0.00000000       3893.81421      -1.53328454    
  -1.90499997       0.00000000      -0.00000000       3893.81421      -1.53328454    
  -1.90404105       6.04420006E-02  -0.00000000       3893.81421      -1.53328454    
  -1.90116501      0.120823003      -0.00000000       3893.81421      -1.53328454    
  -1.89637399     -0.181081995      -0.00000000       3889.36255      -1.53367925    
  -1.90116501     -0.120823003      -0.00000000       3889.36255      -1.53367925    
   0.00000000       0.00000000       0.00000000       3889.36255      -1.53367925    
  -1.88967395     -0.241159007      -0.00000000       3889.36255      -1.53367925    
  -1.85819399     -0.419692010      -0.00000000       3875.61084      -1.53600347    
  -1.87057400     -0.360523999      -0.00000000       3875.61084      -1.53600347    
   0.00000000       0.00000000       0.00000000       3875.61084      -1.53600347    
  -1.84394205     -0.478437006      -0.00000000       3875.61084      -1.53600347    
   0.00000000       0.00000000       0.00000000       3882.00464      -1.53455710    
  -1.87057400     -0.360523999      -0.00000000       3882.00464      -1.53455710    
  -1.88107097     -0.300992996      -0.00000000       3882.00464      -1.53455710    
  -1.88967395     -0.241159007      -0.00000000       3882.00464      -1.53455710    
  -1.82783401     -0.536701024      -0.00000000       3877.96216      -1.53825188    
  -1.84394205     -0.478437006      -0.00000000       3877.96216      -1.53825188    
   0.00000000       0.00000000       0.00000000       3877.96216      -1.53825188    
  -1.80988598     -0.594424009      -0.00000000       3877.96216      -1.53825188    
  -1.74518704     -0.763773024      -0.00000000       3931.60132      -1.54574549    
  -1.76854098     -0.708016992      -0.00000000       3931.60132      -1.54574549    
   0.00000000       0.00000000       0.00000000       3931.60132      -1.54574549    
  -1.72007501     -0.818759024      -0.00000000       3931.60132      -1.54574549    
   0.00000000       0.00000000       0.00000000       3894.90747      -1.54145539    
  -1.76854098     -0.708016992      -0.00000000       3894.90747      -1.54145539    
  -1.79011405     -0.651548028      -0.00000000       3894.90747      -1.54145539    
  -1.80988598     -0.594424009      -0.00000000       3894.90747      -1.54145539    
  -1.69323206     -0.872922003      -0.00000000       3994.63867      -1.55123901    
  -1.72007501     -0.818759024      -0.00000000       3994.63867      -1.55123901    
   0.00000000       0.00000000       0.00000000       3994.63867      -1.55123901    
  -1.66468298     -0.926204979      -0.00000000       3994.63867      -1.55123901    
  -1.56910396      -1.08024895      -0.00000000       4197.89209      -1.56526077    
  -1.60258806      -1.02992105      -0.00000000       4197.89209      -1.56526077    
   0.00000000       0.00000000       0.00000000       4197.89209      -1.56526077    
  -1.53403997      -1.12949002      -0.00000000       4197.89209      -1.56526077    
   0.00000000       0.00000000       0.00000000       4085.03296      -1.55782211    
  -1.60258806      -1.02992105      -0.00000000       4085.03296      -1.55782211    
  -1.63445795     -0.978555024      -0.00000000       4085.03296      -1.55782211    
  -1.66468298     -0.926204979      -0.00000000       4085.03296      -1.55782211    
  -1.49743104      -1.17759299      -0.00000000       4315.10156      -1.57303393    
  -1.53403997      -1.12949002      -0.00000000       4315.10156      -1.57303393    
   0.00000000       0.00000000       0.00000000       4315.10156      -1.57303393    
  -1.45931494      -1.22450995      -0.00000000       4315.10156      -1.57303393    
  -1.33631003      -1.35768199      -0.00000000       4364.36914      -1.58547533    
  -1.37871301      -1.31459999      -0.00000000       4364.36914      -1.58547533    
   0.00000000       0.00000000       0.00000000       4364.36914      -1.58547533    
  -1.29255998      -1.39939702      -0.00000000       4364.36914      -1.58547533    
   0.00000000       0.00000000       0.00000000       4406.18604      -1.58049595    
  -1.37871301      -1.31459999      -0.00000000       4406.18604      -1.58049595    
  -1.41972899      -1.27019501      -0.00000000       4406.18604      -1.58049595    
  -1.45931494      -1.22450995      -0.00000000       4406.18604      -1.58049595    
  -1.24750996      -1.43970299      -0.00000000       4065.34888      -1.58538282    
  -1.29255998      -1.39939702      -0.00000000       4065.34888      -1.58538282    
   0.00000000       0.00000000       0.00000000       4065.34888      -1.58538282    
  -1.20120299      -1.47855902      -0.00000000       4065.34888      -1.58538282    
  -1.05521798      -1.58604598      -0.00000000       3184.42505      -1.57889414    
  -1.10500801      -1.55176699      -0.00000000       3184.42505      -1.57889414    
   0.00000000       0.00000000       0.00000000       3184.42505      -1.57889414    
  -1.00436401      -1.61872697      -0.00000000       3184.42505      -1.57889414    
   0.00000000       0.00000000       0.00000000       3634.21802      -1.58246875    
  -1.10500801      -1.55176699      -0.00000000       3634.21802      -1.58246875    
  -1.15368605      -1.51592600      -0.00000000       3634.21802      -1.58246875    
  -1.20120299      -1.47855902      -0.00000000       3634.21802      -1.58246875    
 -0.952499986      -1.64977801      -0.00000000       2747.05225      -1.57525253    
  -1.00436401      -1.61872697      -0.00000000       2747.05225      -1.57525253    
   0.00000000       0.00000000       0.00000000       2747.05225      -1.57525253    
 -0.899676025      -1.67916906      -0.00000000       2747.05225      -1.57525253    
 -0.735987008      -1.75708497      -0.00000000       1966.28113      -1.56982327    
 -0.791365981      -1.73284900      -0.00000000       1966.28113      -1.56982327    
   0.00000000       0.00000000       0.00000000       1966.28113      -1.56982327    
 -0.679867983      -1.77955198      -0.00000000       1966.28113      -1.56982327    
   0.00000000       0.00000000       0.00000000       2340.96655      -1.57213843    
 -0.791365981      -1.73284900      -0.00000000       2340.96655      -1.57213843    
 -0.845947027      -1.70686805      -0.00000000       2340.96655      -1.57213843    
 -0.899676025      -1.67916906      -0.00000000       2340.96655      -1.57213843    
 -0.623063982      -1.80022705      -0.00000000       1618.82092      -1.56859994    
 -0.679867983      -1.77955198      -0.00000000       1618.82092      -1.56859994    
   0.00000000       0.00000000       0.00000000       1618.82092      -1.56859994    
 -0.565632999      -1.81908906      -0.00000000       1618.82092      -1.56859994    
 -0.390157014      -1.86461902      -0.00000000       977.604126      -1.57047927    
 -0.449120998      -1.85130095      -0.00000000       977.604126      -1.57047927    
   0.00000000       0.00000000       0.00000000       977.604126      -1.57047927    
 -0.330799997      -1.87605906      -0.00000000       977.604126      -1.57047927    
   0.00000000       0.00000000       0.00000000       1291.74744      -1.56869447    
 -0.449120998      -1.85130095      -0.00000000       1291.74744      -1.56869447    
 -0.507632971      -1.83611906      -0.00000000       1291.74744      -1.56869447    
 -0.565632999      -1.81908906      -0.00000000       1291.74744      -1.56869447    
 -0.271109998      -1.88560998      -0.00000000       668.667542      -1.57507646    
 -0.330799997      -1.87605906      -0.00000000       668.667542      -1.57507646    
   0.00000000       0.00000000       0.00000000       668.667542      -1.57507646    
 -0.211146995      -1.89326203      -0.00000000       668.667542      -1.57507646    
  -3.02249994E-02  -1.90476000      -0.00000000       55.6680794      -1.74751294    
  -9.06440020E-02  -1.90284204      -0.00000000       55.6680794      -1.74751294    
   0.00000000       0.00000000       0.00000000       55.6680794      -1.74751294    
   3.02249994E-02  -1.90476000      -0.00000000       55.6680794      -1.74751294    
   0.00000000       0.00000000       0.00000000       360.616730      -1.58801341    
  -9.06440020E-02  -1.90284204      -0.00000000       360.616730      -1.58801341    
 -0.150970995      -1.89900804      -0.00000000       360.616730      -1.58801341    
 -0.211146995      -1.89326203      -0.00000000       360.616730      -1.58801341    
   9.06440020E-02  -1.90284204      -0.00000000       251.004089       1.62406456    
   3.02249994E-02  -1.90476000      -0.00000000       251.004089       1.62406456    
   0.00000000       0.00000000       0.00000000       251.004089       1.62406456    
  0.150970995      -1.89900804      -0.00000000       251.004089       1.62406456    
  0.330799997      -1.87605906      -0.00000000       868.558716       1.59356427    
  0.271109998      -1.88560998      -0.00000000       868.558716       1.59356427    
   0.00000000       0.00000000       0.00000000       868.558716       1.59356427    
  0.390157014      -1.86461902      -0.00000000       868.558716       1.59356427    
   0.00000000       0.00000000       0.00000000       558.661194       1.60074019    
  0.271109998      -1.88560998      -0.00000000       558.661194       1.60074019    
  0.211146995      -1.89326203      -0.00000000       558.661194       1.60074019    
  0.150970995      -1.89900804      -0.00000000       558.661194       1.60074019    
  0.449120998      -1.85130095      -0.00000000       1179.53357       1.58988941    
  0.390157014      -1.86461902      -0.00000000       1179.53357       1.58988941    
   0.00000000       0.00000000       0.00000000       1179.53357       1.58988941    
  0.507632971      -1.83611906      -0.00000000       1179.53357       1.58988941    
  0.679867983      -1.77955198      -0.00000000       1831.86743       1.58396995    
  0.623063982      -1.80022705      -0.00000000       1831.86743       1.58396995    
   0.00000000       0.00000000       0.00000000       1831.86743       1.58396995    
  0.735987008      -1.75708497      -0.00000000       1831.86743       1.58396995    
   0.00000000       0.00000000       0.00000000       1498.38708       1.58696544    
  0.623063982      -1.80022705      -0.00000000       1498.38708       1.58696544    
  0.565632999      -1.81908906      -0.00000000       1498.38708       1.58696544    
  0.507632971      -1.83611906      -0.00000000       1498.38708       1.58696544    
  0.791365981      -1.73284900      -0.00000000       2185.87866       1.58058286    
  0.735987008      -1.75708497      -0.00000000       2185.87866       1.58058286    
   0.00000000       0.00000000       0.00000000       2185.87866       1.58058286    
  0.845947027      -1.70686805      -0.00000000       2185.87866       1.58058286    
   1.00436401      -1.61872697      -0.00000000       2981.03296       1.57226396    
  0.952499986      -1.64977801      -0.00000000       2981.03296       1.57226396    
   0.00000000       0.00000000       0.00000000       2981.03296       1.57226396    
   1.05521798      -1.58604598      -0.00000000       2981.03296       1.57226396    
   0.00000000       0.00000000       0.00000000       2568.12671       1.57663381    
  0.952499986      -1.64977801      -0.00000000       2568.12671       1.57663381    
  0.899676025      -1.67916906      -0.00000000       2568.12671       1.57663381    
  0.845947027      -1.70686805      -0.00000000       2568.12671       1.57663381    
   1.10500801      -1.55176699      -0.00000000       3418.62622       1.56771755    
   1.05521798      -1.58604598      -0.00000000       3418.62622       1.56771755    
   0.00000000       0.00000000       0.00000000       3418.62622       1.56771755    
   1.15368605      -1.51592600      -0.00000000       3418.62622       1.56771755    
   1.29255998      -1.39939702      -0.00000000       4284.38818       1.55997586    
   1.24750996      -1.43970299      -0.00000000       4284.38818       1.55997586    
   0.00000000       0.00000000       0.00000000       4284.38818       1.55997586    
   1.33631003      -1.35768199      -0.00000000       4284.38818       1.55997586    
   0.00000000       0.00000000       0.00000000       3863.44922       1.56344402    
   1.24750996      -1.43970299      -0.00000000       3863.44922       1.56344402    
   1.20120299      -1.47855902      -0.00000000       3863.44922       1.56344402    