 VARIABLES="X" "Y" "Z" "abs(p) (Pa)" "angle(p) (rad)"
ZONE N=    802,E =     800, F=FEPOINT, ET=QUADRILATERAL
   1.90499997       0.00000000      -0.00000000       58.9750824       2.10747981    
   1.90404105      -6.04420006E-02  -0.00000000       58.9750824       2.10747981    
   0.00000000       0.00000000       0.00000000       58.9750824       2.10747981    
   1.90404105       6.04420006E-02  -0.00000000       58.9750824       2.10747981    
   1.88967395      0.241159007      -0.00000000       58.9062347       2.10773349    
   1.89637399      0.181081995      -0.00000000       58.9062347       2.10773349    
   0.00000000       0.00000000       0.00000000       58.9062347       2.10773349    
   1.88107097      0.300992996      -0.00000000       58.9062347       2.10773349    
   0.00000000       0.00000000       0.00000000       58.9612389       2.10753226    
   1.89637399      0.181081995      -0.00000000       58.9612389       2.10753226    
   1.90116501      0.120823003      -0.00000000       58.9612389       2.10753226    
   1.90404105       6.04420006E-02  -0.00000000       58.9612389       2.10753226    
   1.87057400      0.360523999      -0.00000000       58.7949448       2.10814953    
   1.88107097      0.300992996      -0.00000000       58.7949448       2.10814953    
   0.00000000       0.00000000       0.00000000       58.7949448       2.10814953    
   1.85819399      0.419692010      -0.00000000       58.7949448       2.10814953    
   1.80988598      0.594424009      -0.00000000       58.3422127       2.10989022    
   1.82783401      0.536701024      -0.00000000       58.3422127       2.10989022    
   0.00000000       0.00000000       0.00000000       58.3422127       2.10989022    
   1.79011405      0.651548028      -0.00000000       58.3422127       2.10989022    
   0.00000000       0.00000000       0.00000000       58.6180077       2.10882568    
   1.82783401      0.536701024      -0.00000000       58.6180077       2.10882568    
   1.84394205      0.478437006      -0.00000000       58.6180077       2.10882568    
   1.85819399      0.419692010      -0.00000000       58.6180077       2.10882568    
   1.76854098      0.708016992      -0.00000000       57.9473801       2.11140275    
   1.79011405      0.651548028      -0.00000000       57.9473801       2.11140275    
   0.00000000       0.00000000       0.00000000       57.9473801       2.11140275    
   1.74518704      0.763773024      -0.00000000       57.9473801       2.11140275    
   1.66468298      0.926204979      -0.00000000       56.7116165       2.11605072    
   1.69323206      0.872922003      -0.00000000       56.7116165       2.11605072    
   0.00000000       0.00000000       0.00000000       56.7116165       2.11605072    
   1.63445795      0.978555024      -0.00000000       56.7116165       2.11605072    
   0.00000000       0.00000000       0.00000000       57.4081955       2.11345267    
   1.69323206      0.872922003      -0.00000000       57.4081955       2.11345267    
   1.72007501      0.818759024      -0.00000000       57.4081955       2.11345267    
   1.74518704      0.763773024      -0.00000000       57.4081955       2.11345267    
   1.60258806       1.02992105      -0.00000000       55.8608360       2.11917281    
   1.63445795      0.978555024      -0.00000000       55.8608360       2.11917281    
   0.00000000       0.00000000       0.00000000       55.8608360       2.11917281    
   1.56910396       1.08024895      -0.00000000       55.8608360       2.11917281    
   1.45931494       1.22450995      -0.00000000       53.9547806       2.12574315    
   1.49743104       1.17759299      -0.00000000       53.9547806       2.12574315    
   0.00000000       0.00000000       0.00000000       53.9547806       2.12574315    
   1.41972899       1.27019501      -0.00000000       53.9547806       2.12574315    
   0.00000000       0.00000000       0.00000000       54.9056778       2.12255669    
   1.49743104       1.17759299      -0.00000000       54.9056778       2.12255669    
   1.53403997       1.12949002      -0.00000000       54.9056778       2.12255669    
   1.56910396       1.08024895      -0.00000000       54.9056778       2.12255669    
   1.37871301       1.31459999      -0.00000000       53.4571190       2.12729645    
   1.41972899       1.27019501      -0.00000000       53.4571190       2.12729645    
   0.00000000       0.00000000       0.00000000       53.4571190       2.12729645    
   1.33631003       1.35768199      -0.00000000       53.4571190       2.12729645    
   1.20120299       1.47855902      -0.00000000       54.9985695       2.12197113    
   1.24750996       1.43970299      -0.00000000       54.9985695       2.12197113    
   0.00000000       0.00000000       0.00000000       54.9985695       2.12197113    
   1.15368605       1.51592600      -0.00000000       54.9985695       2.12197113    
   0.00000000       0.00000000       0.00000000       53.9889946       2.12545991    
   1.24750996       1.43970299      -0.00000000       53.9889946       2.12545991    
   1.29255998       1.39939702      -0.00000000       53.9889946       2.12545991    
   1.33631003       1.35768199      -0.00000000       53.9889946       2.12545991    
   1.10500801       1.55176699      -0.00000000       56.0005569       2.11838436    
   1.15368605       1.51592600      -0.00000000       56.0005569       2.11838436    
   0.00000000       0.00000000       0.00000000       56.0005569       2.11838436    
   1.05521798       1.58604598      -0.00000000       56.0005569       2.11838436    
  0.899676025       1.67916906      -0.00000000       57.5826607       2.11259246    
  0.952499986       1.64977801      -0.00000000       57.5826607       2.11259246    
   0.00000000       0.00000000       0.00000000       57.5826607       2.11259246    
  0.845947027       1.70686805      -0.00000000       57.5826607       2.11259246    
   0.00000000       0.00000000       0.00000000       56.8736534       2.11520863    
  0.952499986       1.64977801      -0.00000000       56.8736534       2.11520863    
   1.00436401       1.61872697      -0.00000000       56.8736534       2.11520863    
   1.05521798       1.58604598      -0.00000000       56.8736534       2.11520863    
  0.791365981       1.73284900      -0.00000000       58.1296577       2.11056352    
  0.845947027       1.70686805      -0.00000000       58.1296577       2.11056352    
   0.00000000       0.00000000       0.00000000       58.1296577       2.11056352    
  0.735987008       1.75708497      -0.00000000       58.1296577       2.11056352    
  0.565632999       1.81908906      -0.00000000       58.8143806       2.10801744    
  0.623063982       1.80022705      -0.00000000       58.8143806       2.10801744    
   0.00000000       0.00000000       0.00000000       58.8143806       2.10801744    
  0.507632971       1.83611906      -0.00000000       58.8143806       2.10801744    
   0.00000000       0.00000000       0.00000000       58.5301590       2.10906529    
  0.623063982       1.80022705      -0.00000000       58.5301590       2.10906529    
  0.679867983       1.77955198      -0.00000000       58.5301590       2.10906529    
  0.735987008       1.75708497      -0.00000000       58.5301590       2.10906529    
  0.449120998       1.85130095      -0.00000000       59.0060120       2.10731626    
  0.507632971       1.83611906      -0.00000000       59.0060120       2.10731626    
   0.00000000       0.00000000       0.00000000       59.0060120       2.10731626    
  0.390157014       1.86461902      -0.00000000       59.0060120       2.10731626    
  0.211146995       1.89326203      -0.00000000       59.2071381       2.10662198    
  0.271109998       1.88560998      -0.00000000       59.2071381       2.10662198    
   0.00000000       0.00000000       0.00000000       59.2071381       2.10662198    
  0.150970995       1.89900804      -0.00000000       59.2071381       2.10662198    
   0.00000000       0.00000000       0.00000000       59.1349640       2.10685778    
  0.271109998       1.88560998      -0.00000000       59.1349640       2.10685778    
  0.330799997       1.87605906      -0.00000000       59.1349640       2.10685778    
  0.390157014       1.86461902      -0.00000000       59.1349640       2.10685778    
   9.06440020E-02   1.90284204      -0.00000000       59.2379150       2.10652328    
  0.150970995       1.89900804      -0.00000000       59.2379150       2.10652328    
   0.00000000       0.00000000       0.00000000       59.2379150       2.10652328    
   3.02249994E-02   1.90476000      -0.00000000       59.2379150       2.10652328    
 -0.150970995       1.89900804      -0.00000000       59.2063904       2.10662723    
  -9.06440020E-02   1.90284204      -0.00000000       59.2063904       2.10662723    
   0.00000000       0.00000000       0.00000000       59.2063904       2.10662723    
 -0.211146995       1.89326203      -0.00000000       59.2063904       2.10662723    
   0.00000000       0.00000000       0.00000000       59.2383156       2.10652471    
  -9.06440020E-02   1.90284204      -0.00000000       59.2383156       2.10652471    
  -3.02249994E-02   1.90476000      -0.00000000       59.2383156       2.10652471    
   3.02249994E-02   1.90476000      -0.00000000       59.2383156       2.10652471    
 -0.271109998       1.88560998      -0.00000000       59.1256447       2.10691261    
 -0.211146995       1.89326203      -0.00000000       59.1256447       2.10691261    
   0.00000000       0.00000000       0.00000000       59.1256447       2.10691261    
 -0.330799997       1.87605906      -0.00000000       59.1256447       2.10691261    
 -0.507632971       1.83611906      -0.00000000       58.7880211       2.10817194    
 -0.449120998       1.85130095      -0.00000000       58.7880211       2.10817194    
   0.00000000       0.00000000       0.00000000       58.7880211       2.10817194    
 -0.565632999       1.81908906      -0.00000000       58.7880211       2.10817194    
   0.00000000       0.00000000       0.00000000       58.9896698       2.10741353    
 -0.449120998       1.85130095      -0.00000000       58.9896698       2.10741353    
 -0.390157014       1.86461902      -0.00000000       58.9896698       2.10741353    
 -0.330799997       1.87605906      -0.00000000       58.9896698       2.10741353    
 -0.623063982       1.80022705      -0.00000000       58.4873734       2.10931253    
 -0.565632999       1.81908906      -0.00000000       58.4873734       2.10931253    
   0.00000000       0.00000000       0.00000000       58.4873734       2.10931253    
 -0.679867983       1.77955198      -0.00000000       58.4873734       2.10931253    
 -0.845947027       1.70686805      -0.00000000       57.5112495       2.11302376    
 -0.791365981       1.73284900      -0.00000000       57.5112495       2.11302376    
   0.00000000       0.00000000       0.00000000       57.5112495       2.11302376    
 -0.899676025       1.67916906      -0.00000000       57.5112495       2.11302376    
   0.00000000       0.00000000       0.00000000       58.0705261       2.11090541    
 -0.791365981       1.73284900      -0.00000000       58.0705261       2.11090541    
 -0.735987008       1.75708497      -0.00000000       58.0705261       2.11090541    
 -0.679867983       1.77955198      -0.00000000       58.0705261       2.11090541    
 -0.952499986       1.64977801      -0.00000000       56.7988243       2.11568689    
 -0.899676025       1.67916906      -0.00000000       56.7988243       2.11568689    
   0.00000000       0.00000000       0.00000000       56.7988243       2.11568689    
  -1.00436401       1.61872697      -0.00000000       56.7988243       2.11568689    
  -1.15368605       1.51592600      -0.00000000       54.9699593       2.12225556    
  -1.10500801       1.55176699      -0.00000000       54.9699593       2.12225556    
   0.00000000       0.00000000       0.00000000       54.9699593       2.12225556    
  -1.20120299       1.47855902      -0.00000000       54.9699593       2.12225556    
   0.00000000       0.00000000       0.00000000       55.9355202       2.11884141    
  -1.10500801       1.55176699      -0.00000000       55.9355202       2.11884141    
  -1.05521798       1.58604598      -0.00000000       55.9355202       2.11884141    
  -1.00436401       1.61872697      -0.00000000       55.9355202       2.11884141    
  -1.24750996       1.43970299      -0.00000000       54.0094910       2.12547040    
  -1.20120299       1.47855902      -0.00000000       54.0094910       2.12547040    
   0.00000000       0.00000000       0.00000000       54.0094910       2.12547040    
  -1.29255998       1.39939702      -0.00000000       54.0094910       2.12547040    
  -1.41972899       1.27019501      -0.00000000       54.0373878       2.12522459    
  -1.37871301       1.31459999      -0.00000000       54.0373878       2.12522459    
   0.00000000       0.00000000       0.00000000       54.0373878       2.12522459    
  -1.45931494       1.22450995      -0.00000000       54.0373878       2.12522459    
   0.00000000       0.00000000       0.00000000       53.5074043       2.12703586    
  -1.37871301       1.31459999      -0.00000000       53.5074043       2.12703586    
  -1.33631003       1.35768199      -0.00000000       53.5074043       2.12703586    
  -1.29255998       1.39939702      -0.00000000       53.5074043       2.12703586    
  -1.49743104       1.17759299      -0.00000000       55.0419083       2.12176967    
  -1.45931494       1.22450995      -0.00000000       55.0419083       2.12176967    
   0.00000000       0.00000000       0.00000000       55.0419083       2.12176967    
  -1.53403997       1.12949002      -0.00000000       55.0419083       2.12176967    
  -1.63445795      0.978555024      -0.00000000       56.9087105       2.11506534    
  -1.60258806       1.02992105      -0.00000000       56.9087105       2.11506534    
   0.00000000       0.00000000       0.00000000       56.9087105       2.11506534    
  -1.66468298      0.926204979      -0.00000000       56.9087105       2.11506534    
   0.00000000       0.00000000       0.00000000       56.0390892       2.11821938    
  -1.60258806       1.02992105      -0.00000000       56.0390892       2.11821938    
  -1.56910396       1.08024895      -0.00000000       56.0390892       2.11821938    
  -1.53403997       1.12949002      -0.00000000       56.0390892       2.11821938    
  -1.69323206      0.872922003      -0.00000000       57.6150284       2.11246943    
  -1.66468298      0.926204979      -0.00000000       57.6150284       2.11246943    
   0.00000000       0.00000000       0.00000000       57.6150284       2.11246943    
  -1.72007501      0.818759024      -0.00000000       57.6150284       2.11246943    
  -1.79011405      0.651548028      -0.00000000       58.5580482       2.10897064    
  -1.76854098      0.708016992      -0.00000000       58.5580482       2.10897064    
   0.00000000       0.00000000       0.00000000       58.5580482       2.10897064    
  -1.80988598      0.594424009      -0.00000000       58.5580482       2.10897064    
   0.00000000       0.00000000       0.00000000       58.1594429       2.11045027    
  -1.76854098      0.708016992      -0.00000000       58.1594429       2.11045027    
  -1.74518704      0.763773024      -0.00000000       58.1594429       2.11045027    
  -1.72007501      0.818759024      -0.00000000       58.1594429       2.11045027    
  -1.82783401      0.536701024      -0.00000000       58.8398323       2.10793543    
  -1.80988598      0.594424009      -0.00000000       58.8398323       2.10793543    
   0.00000000       0.00000000       0.00000000       58.8398323       2.10793543    
  -1.84394205      0.478437006      -0.00000000       58.8398323       2.10793543    
  -1.88107097      0.300992996      -0.00000000       59.1565018       2.10679007    
  -1.87057400      0.360523999      -0.00000000       59.1565018       2.10679007    
   0.00000000       0.00000000       0.00000000       59.1565018       2.10679007    
  -1.88967395      0.241159007      -0.00000000       59.1565018       2.10679007    
   0.00000000       0.00000000       0.00000000       59.0292778       2.10724449    
  -1.87057400      0.360523999      -0.00000000       59.0292778       2.10724449    
  -1.85819399      0.419692010      -0.00000000       59.0292778       2.10724449    
  -1.84394205      0.478437006      -0.00000000       59.0292778       2.10724449    
  -1.89637399      0.181081995      -0.00000000       59.2277107       2.10655999    
  -1.88967395      0.241159007      -0.00000000       59.2277107       2.10655999    
   0.00000000       0.00000000       0.00000000       59.2277107       2.10655999    
  -1.90116501      0.120823003      -0.00000000       59.2277107       2.10655999    
  -1.90404105      -6.04420006E-02  -0.00000000       59.2578354       2.10646367    
  -1.90499997       0.00000000      -0.00000000       59.2578354       2.10646367    
   0.00000000       0.00000000       0.00000000       59.2578354       2.10646367    
  -1.90116501     -0.120823003      -0.00000000       59.2578354       2.10646367    
   0.00000000       0.00000000       0.00000000       59.2580299       2.10646725    
  -1.90499997       0.00000000      -0.00000000       59.2580299       2.10646725    
  -1.90404105       6.04420006E-02  -0.00000000       59.2580299       2.10646725    
  -1.90116501      0.120823003      -0.00000000       59.2580299       2.10646725    
  -1.89637399     -0.181081995      -0.00000000       59.2256050       2.10656738    
  -1.90116501     -0.120823003      -0.00000000       59.2256050       2.10656738    
   0.00000000       0.00000000       0.00000000       59.2256050       2.10656738    
  -1.88967395     -0.241159007      -0.00000000       59.2256050       2.10656738    
  -1.85819399     -0.419692010      -0.00000000       59.0070648       2.10736680    
  -1.87057400     -0.360523999      -0.00000000       59.0070648       2.10736680    
   0.00000000       0.00000000       0.00000000       59.0070648       2.10736680    
  -1.84394205     -0.478437006      -0.00000000       59.0070648       2.10736680    
   0.00000000       0.00000000       0.00000000       59.1442986       2.10686231    
  -1.87057400     -0.360523999      -0.00000000       59.1442986       2.10686231    
  -1.88107097     -0.300992996      -0.00000000       59.1442986       2.10686231    
  -1.88967395     -0.241159007      -0.00000000       59.1442986       2.10686231    
  -1.82783401     -0.536701024      -0.00000000       58.8036308       2.10812807    
  -1.84394205     -0.478437006      -0.00000000       58.8036308       2.10812807    
   0.00000000       0.00000000       0.00000000       58.8036308       2.10812807    
  -1.80988598     -0.594424009      -0.00000000       58.8036308       2.10812807    
  -1.74518704     -0.763773024      -0.00000000       58.0821953       2.11087227    
  -1.76854098     -0.708016992      -0.00000000       58.0821953       2.11087227    
   0.00000000       0.00000000       0.00000000       58.0821953       2.11087227    
  -1.72007501     -0.818759024      -0.00000000       58.0821953       2.11087227    
   0.00000000       0.00000000       0.00000000       58.5012512       2.10927773    
  -1.76854098     -0.708016992      -0.00000000       58.5012512       2.10927773    
  -1.79011405     -0.651548028      -0.00000000       58.5012512       2.10927773    
  -1.80988598     -0.594424009      -0.00000000       58.5012512       2.10927773    
  -1.69323206     -0.872922003      -0.00000000       57.5206985       2.11299491    
  -1.72007501     -0.818759024      -0.00000000       57.5206985       2.11299491    
   0.00000000       0.00000000       0.00000000       57.5206985       2.11299491    
  -1.66468298     -0.926204979      -0.00000000       57.5206985       2.11299491    
  -1.56910396      -1.08024895      -0.00000000       55.9393845       2.11883593    
  -1.60258806      -1.02992105      -0.00000000       55.9393845       2.11883593    
   0.00000000       0.00000000       0.00000000       55.9393845       2.11883593    
  -1.53403997      -1.12949002      -0.00000000       55.9393845       2.11883593    
   0.00000000       0.00000000       0.00000000       56.8056641       2.11566281    
  -1.60258806      -1.02992105      -0.00000000       56.8056641       2.11566281    
  -1.63445795     -0.978555024      -0.00000000       56.8056641       2.11566281    
  -1.66468298     -0.926204979      -0.00000000       56.8056641       2.11566281    
  -1.49743104      -1.17759299      -0.00000000       54.9699745       2.12225819    
  -1.53403997      -1.12949002      -0.00000000       54.9699745       2.12225819    
   0.00000000       0.00000000       0.00000000       54.9699745       2.12225819    
  -1.45931494      -1.22450995      -0.00000000       54.9699745       2.12225819    
  -1.33631003      -1.35768199      -0.00000000       53.5039062       2.12705016    
  -1.37871301      -1.31459999      -0.00000000       53.5039062       2.12705016    
   0.00000000       0.00000000       0.00000000       53.5039062       2.12705016    
  -1.29255998      -1.39939702      -0.00000000       53.5039062       2.12705016    
   0.00000000       0.00000000       0.00000000       54.0061417       2.12548256    
  -1.37871301      -1.31459999      -0.00000000       54.0061417       2.12548256    
  -1.41972899      -1.27019501      -0.00000000       54.0061417       2.12548256    
  -1.45931494      -1.22450995      -0.00000000       54.0061417       2.12548256    
  -1.24750996      -1.43970299      -0.00000000       54.0339508       2.12523818    
  -1.29255998      -1.39939702      -0.00000000       54.0339508       2.12523818    
   0.00000000       0.00000000       0.00000000       54.0339508       2.12523818    
  -1.20120299      -1.47855902      -0.00000000       54.0339508       2.12523818    
  -1.05521798      -1.58604598      -0.00000000       56.0294991       2.11825395    
  -1.10500801      -1.55176699      -0.00000000       56.0294991       2.11825395    
   0.00000000       0.00000000       0.00000000       56.0294991       2.11825395    
  -1.00436401      -1.61872697      -0.00000000       56.0294991       2.11825395    
   0.00000000       0.00000000       0.00000000       55.0356636       2.12179565    
  -1.10500801      -1.55176699      -0.00000000       55.0356636       2.12179565    
  -1.15368605      -1.51592600      -0.00000000       55.0356636       2.12179565    
  -1.20120299      -1.47855902      -0.00000000       55.0356636       2.12179565    
 -0.952499986      -1.64977801      -0.00000000       56.8961334       2.11510015    
  -1.00436401      -1.61872697      -0.00000000       56.8961334       2.11510015    
   0.00000000       0.00000000       0.00000000       56.8961334       2.11510015    
 -0.899676025      -1.67916906      -0.00000000       56.8961334       2.11510015    
 -0.735987008      -1.75708497      -0.00000000       58.1429024       2.11049485    
 -0.791365981      -1.73284900      -0.00000000       58.1429024       2.11049485    
   0.00000000       0.00000000       0.00000000       58.1429024       2.11049485    
 -0.679867983      -1.77955198      -0.00000000       58.1429024       2.11049485    
   0.00000000       0.00000000       0.00000000       57.6003532       2.11251068    
 -0.791365981      -1.73284900      -0.00000000       57.6003532       2.11251068    
 -0.845947027      -1.70686805      -0.00000000       57.6003532       2.11251068    
 -0.899676025      -1.67916906      -0.00000000       57.6003532       2.11251068    
 -0.623063982      -1.80022705      -0.00000000       58.5397110       2.10901833    
 -0.679867983      -1.77955198      -0.00000000       58.5397110       2.10901833    
   0.00000000       0.00000000       0.00000000       58.5397110       2.10901833    
 -0.565632999      -1.81908906      -0.00000000       58.5397110       2.10901833    
 -0.390157014      -1.86461902      -0.00000000       59.0082016       2.10730124    
 -0.449120998      -1.85130095      -0.00000000       59.0082016       2.10730124    
   0.00000000       0.00000000       0.00000000       59.0082016       2.10730124    
 -0.330799997      -1.87605906      -0.00000000       59.0082016       2.10730124    
   0.00000000       0.00000000       0.00000000       58.8199692       2.10798955    
 -0.449120998      -1.85130095      -0.00000000       58.8199692       2.10798955    
 -0.507632971      -1.83611906      -0.00000000       58.8199692       2.10798955    
 -0.565632999      -1.81908906      -0.00000000       58.8199692       2.10798955    
 -0.271109998      -1.88560998      -0.00000000       59.1348228       2.10685873    
 -0.330799997      -1.87605906      -0.00000000       59.1348228       2.10685873    
   0.00000000       0.00000000       0.00000000       59.1348228       2.10685873    
 -0.211146995      -1.89326203      -0.00000000       59.1348228       2.10685873    
  -3.02249994E-02  -1.90476000      -0.00000000       59.2354240       2.10653138    
  -9.06440020E-02  -1.90284204      -0.00000000       59.2354240       2.10653138    
   0.00000000       0.00000000       0.00000000       59.2354240       2.10653138    
   3.02249994E-02  -1.90476000      -0.00000000       59.2354240       2.10653138    
   0.00000000       0.00000000       0.00000000       59.2053261       2.10662365    
  -9.06440020E-02  -1.90284204      -0.00000000       59.2053261       2.10662365    
 -0.150970995      -1.89900804      -0.00000000       59.2053261       2.10662365    
 -0.211146995      -1.89326203      -0.00000000       59.2053261       2.10662365    
   9.06440020E-02  -1.90284204      -0.00000000       59.2351723       2.10652947    
   3.02249994E-02  -1.90476000      -0.00000000       59.2351723       2.10652947    
   0.00000000       0.00000000       0.00000000       59.2351723       2.10652947    
  0.150970995      -1.89900804      -0.00000000       59.2351723       2.10652947    
  0.330799997      -1.87605906      -0.00000000       59.1196213       2.10693192    
  0.271109998      -1.88560998      -0.00000000       59.1196213       2.10693192    
   0.00000000       0.00000000       0.00000000       59.1196213       2.10693192    
  0.390157014      -1.86461902      -0.00000000       59.1196213       2.10693192    
   0.00000000       0.00000000       0.00000000       59.2022324       2.10663724    
  0.271109998      -1.88560998      -0.00000000       59.2022324       2.10663724    
  0.211146995      -1.89326203      -0.00000000       59.2022324       2.10663724    
  0.150970995      -1.89900804      -0.00000000       59.2022324       2.10663724    
  0.449120998      -1.85130095      -0.00000000       58.9807053       2.10744596    
  0.390157014      -1.86461902      -0.00000000       58.9807053       2.10744596    
   0.00000000       0.00000000       0.00000000       58.9807053       2.10744596    
  0.507632971      -1.83611906      -0.00000000       58.9807053       2.10744596    
  0.679867983      -1.77955198      -0.00000000       58.4699326       2.10938334    
  0.623063982      -1.80022705      -0.00000000       58.4699326       2.10938334    
   0.00000000       0.00000000       0.00000000       58.4699326       2.10938334    
  0.735987008      -1.75708497      -0.00000000       58.4699326       2.10938334    
   0.00000000       0.00000000       0.00000000       58.7749023       2.10821915    
  0.623063982      -1.80022705      -0.00000000       58.7749023       2.10821915    
  0.565632999      -1.81908906      -0.00000000       58.7749023       2.10821915    
  0.507632971      -1.83611906      -0.00000000       58.7749023       2.10821915    
  0.791365981      -1.73284900      -0.00000000       58.0484619       2.11099243    
  0.735987008      -1.75708497      -0.00000000       58.0484619       2.11099243    
   0.00000000       0.00000000       0.00000000       58.0484619       2.11099243    
  0.845947027      -1.70686805      -0.00000000       58.0484619       2.11099243    
   1.00436401      -1.61872697      -0.00000000       56.7660599       2.11582470    
  0.952499986      -1.64977801      -0.00000000       56.7660599       2.11582470    
   0.00000000       0.00000000       0.00000000       56.7660599       2.11582470    
   1.05521798      -1.58604598      -0.00000000       56.7660599       2.11582470    
   0.00000000       0.00000000       0.00000000       57.4841728       2.11313486    
  0.952499986      -1.64977801      -0.00000000       57.4841728       2.11313486    
  0.899676025      -1.67916906      -0.00000000       57.4841728       2.11313486    
  0.845947027      -1.70686805      -0.00000000       57.4841728       2.11313486    
   1.10500801      -1.55176699      -0.00000000       55.8950996       2.11902261    
   1.05521798      -1.58604598      -0.00000000       55.8950996       2.11902261    
   0.00000000       0.00000000       0.00000000       55.8950996       2.11902261    
   1.15368605      -1.51592600      -0.00000000       55.8950996       2.11902261    
   1.29255998      -1.39939702      -0.00000000       53.9522896       2.12574172    
   1.24750996      -1.43970299      -0.00000000       53.9522896       2.12574172    
   0.00000000       0.00000000       0.00000000       53.9522896       2.12574172    
   1.33631003      -1.35768199      -0.00000000       53.9522896       2.12574172    
   0.00000000       0.00000000       0.00000000       54.9205437       2.12248373    
   1.24750996      -1.43970299      -0.00000000       54.9205437       2.12248373    
   1.20120299      -1.47855902      -0.00000000       54.9205437       2.12248373    