 VARIABLES="X" "Y" "Z" "abs(p) (Pa)" "angle(p) (rad)"
ZONE N=    802,E =     800, F=FEPOINT, ET=QUADRILATERAL
   1.90499997       0.00000000      -0.00000000       1.45086157       1.51088130    
   1.90404105      -6.04420006E-02  -0.00000000       1.45086157       1.51088130    
   0.00000000       0.00000000       0.00000000       1.45086157       1.51088130    
   1.90404105       6.04420006E-02  -0.00000000       1.45086157       1.51088130    
   1.88967395      0.241159007      -0.00000000       79.4728546       1.58532679    
   1.89637399      0.181081995      -0.00000000       79.4728546       1.58532679    
   0.00000000       0.00000000       0.00000000       79.4728546       1.58532679    
   1.88107097      0.300992996      -0.00000000       79.4728546       1.58532679    
   0.00000000       0.00000000       0.00000000       40.4111137       1.58411515    
   1.89637399      0.181081995      -0.00000000       40.4111137       1.58411515    
   1.90116501      0.120823003      -0.00000000       40.4111137       1.58411515    
   1.90404105       6.04420006E-02  -0.00000000       40.4111137       1.58411515    
   1.87057400      0.360523999      -0.00000000       119.241951       1.58524740    
   1.88107097      0.300992996      -0.00000000       119.241951       1.58524740    
   0.00000000       0.00000000       0.00000000       119.241951       1.58524740    
   1.85819399      0.419692010      -0.00000000       119.241951       1.58524740    
   1.80988598      0.594424009      -0.00000000       202.202484       1.58369684    
   1.82783401      0.536701024      -0.00000000       202.202484       1.58369684    
   0.00000000       0.00000000       0.00000000       202.202484       1.58369684    
   1.79011405      0.651548028      -0.00000000       202.202484       1.58369684    
   0.00000000       0.00000000       0.00000000       159.965408       1.58468258    
   1.82783401      0.536701024      -0.00000000       159.965408       1.58468258    
   1.84394205      0.478437006      -0.00000000       159.965408       1.58468258    
   1.85819399      0.419692010      -0.00000000       159.965408       1.58468258    
   1.76854098      0.708016992      -0.00000000       246.763382       1.58224905    
   1.79011405      0.651548028      -0.00000000       246.763382       1.58224905    
   0.00000000       0.00000000       0.00000000       246.763382       1.58224905    
   1.74518704      0.763773024      -0.00000000       246.763382       1.58224905    
   1.66468298      0.926204979      -0.00000000       343.483124       1.57839358    
   1.69323206      0.872922003      -0.00000000       343.483124       1.57839358    
   0.00000000       0.00000000       0.00000000       343.483124       1.57839358    
   1.63445795      0.978555024      -0.00000000       343.483124       1.57839358    
   0.00000000       0.00000000       0.00000000       293.756622       1.58047140    
   1.69323206      0.872922003      -0.00000000       293.756622       1.58047140    
   1.72007501      0.818759024      -0.00000000       293.756622       1.58047140    
   1.74518704      0.763773024      -0.00000000       293.756622       1.58047140    
   1.60258806       1.02992105      -0.00000000       395.251434       1.57620823    
   1.63445795      0.978555024      -0.00000000       395.251434       1.57620823    
   0.00000000       0.00000000       0.00000000       395.251434       1.57620823    
   1.56910396       1.08024895      -0.00000000       395.251434       1.57620823    
   1.45931494       1.22450995      -0.00000000       497.576233       1.57239819    
   1.49743104       1.17759299      -0.00000000       497.576233       1.57239819    
   0.00000000       0.00000000       0.00000000       497.576233       1.57239819    
   1.41972899       1.27019501      -0.00000000       497.576233       1.57239819    
   0.00000000       0.00000000       0.00000000       447.893555       1.57407522    
   1.49743104       1.17759299      -0.00000000       447.893555       1.57407522    
   1.53403997       1.12949002      -0.00000000       447.893555       1.57407522    
   1.56910396       1.08024895      -0.00000000       447.893555       1.57407522    
   1.37871301       1.31459999      -0.00000000       533.177734       1.57236004    
   1.41972899       1.27019501      -0.00000000       533.177734       1.57236004    
   0.00000000       0.00000000       0.00000000       533.177734       1.57236004    
   1.33631003       1.35768199      -0.00000000       533.177734       1.57236004    
   1.20120299       1.47855902      -0.00000000       533.518127       1.58000922    
   1.24750996       1.43970299      -0.00000000       533.518127       1.58000922    
   0.00000000       0.00000000       0.00000000       533.518127       1.58000922    
   1.15368605       1.51592600      -0.00000000       533.518127       1.58000922    
   0.00000000       0.00000000       0.00000000       540.749939       1.57542300    
   1.24750996       1.43970299      -0.00000000       540.749939       1.57542300    
   1.29255998       1.39939702      -0.00000000       540.749939       1.57542300    
   1.33631003       1.35768199      -0.00000000       540.749939       1.57542300    
   1.10500801       1.55176699      -0.00000000       523.821045       1.58469522    
   1.15368605       1.51592600      -0.00000000       523.821045       1.58469522    
   0.00000000       0.00000000       0.00000000       523.821045       1.58469522    
   1.05521798       1.58604598      -0.00000000       523.821045       1.58469522    
  0.899676025       1.67916906      -0.00000000       509.042755       1.59275079    
  0.952499986       1.64977801      -0.00000000       509.042755       1.59275079    
   0.00000000       0.00000000       0.00000000       509.042755       1.59275079    
  0.845947027       1.70686805      -0.00000000       509.042755       1.59275079    
   0.00000000       0.00000000       0.00000000       515.322876       1.58900368    
  0.952499986       1.64977801      -0.00000000       515.322876       1.58900368    
   1.00436401       1.61872697      -0.00000000       515.322876       1.58900368    
   1.05521798       1.58604598      -0.00000000       515.322876       1.58900368    
  0.791365981       1.73284900      -0.00000000       505.583252       1.59578729    
  0.845947027       1.70686805      -0.00000000       505.583252       1.59578729    
   0.00000000       0.00000000       0.00000000       505.583252       1.59578729    
  0.735987008       1.75708497      -0.00000000       505.583252       1.59578729    
  0.565632999       1.81908906      -0.00000000       505.677826       1.59981453    
  0.623063982       1.80022705      -0.00000000       505.677826       1.59981453    
   0.00000000       0.00000000       0.00000000       505.677826       1.59981453    
  0.507632971       1.83611906      -0.00000000       505.677826       1.59981453    
   0.00000000       0.00000000       0.00000000       504.725952       1.59811401    
  0.623063982       1.80022705      -0.00000000       504.725952       1.59811401    
  0.679867983       1.77955198      -0.00000000       504.725952       1.59811401    
  0.735987008       1.75708497      -0.00000000       504.725952       1.59811401    
  0.449120998       1.85130095      -0.00000000       507.543152       1.60101545    
  0.507632971       1.83611906      -0.00000000       507.543152       1.60101545    
   0.00000000       0.00000000       0.00000000       507.543152       1.60101545    
  0.390157014       1.86461902      -0.00000000       507.543152       1.60101545    
  0.211146995       1.89326203      -0.00000000       511.906128       1.60225677    
  0.271109998       1.88560998      -0.00000000       511.906128       1.60225677    
   0.00000000       0.00000000       0.00000000       511.906128       1.60225677    
  0.150970995       1.89900804      -0.00000000       511.906128       1.60225677    
   0.00000000       0.00000000       0.00000000       509.781830       1.60180140    
  0.271109998       1.88560998      -0.00000000       509.781830       1.60180140    
  0.330799997       1.87605906      -0.00000000       509.781830       1.60180140    
  0.390157014       1.86461902      -0.00000000       509.781830       1.60180140    
   9.06440020E-02   1.90284204      -0.00000000       513.442017       1.60245264    
  0.150970995       1.89900804      -0.00000000       513.442017       1.60245264    
   0.00000000       0.00000000       0.00000000       513.442017       1.60245264    
   3.02249994E-02   1.90476000      -0.00000000       513.442017       1.60245264    
 -0.150970995       1.89900804      -0.00000000       514.067688       1.60215843    
  -9.06440020E-02   1.90284204      -0.00000000       514.067688       1.60215843    
   0.00000000       0.00000000       0.00000000       514.067688       1.60215843    
 -0.211146995       1.89326203      -0.00000000       514.067688       1.60215843    
   0.00000000       0.00000000       0.00000000       514.112732       1.60242569    
  -9.06440020E-02   1.90284204      -0.00000000       514.112732       1.60242569    
  -3.02249994E-02   1.90476000      -0.00000000       514.112732       1.60242569    
   3.02249994E-02   1.90476000      -0.00000000       514.112732       1.60242569    
 -0.271109998       1.88560998      -0.00000000       513.538452       1.60162294    
 -0.211146995       1.89326203      -0.00000000       513.538452       1.60162294    
   0.00000000       0.00000000       0.00000000       513.538452       1.60162294    
 -0.330799997       1.87605906      -0.00000000       513.538452       1.60162294    
 -0.507632971       1.83611906      -0.00000000       513.114258       1.59942818    
 -0.449120998       1.85130095      -0.00000000       513.114258       1.59942818    
   0.00000000       0.00000000       0.00000000       513.114258       1.59942818    
 -0.565632999       1.81908906      -0.00000000       513.114258       1.59942818    
   0.00000000       0.00000000       0.00000000       513.104797       1.60073078    
 -0.449120998       1.85130095      -0.00000000       513.104797       1.60073078    
 -0.390157014       1.86461902      -0.00000000       513.104797       1.60073078    
 -0.330799997       1.87605906      -0.00000000       513.104797       1.60073078    
 -0.623063982       1.80022705      -0.00000000       514.295166       1.59761012    
 -0.565632999       1.81908906      -0.00000000       514.295166       1.59761012    
   0.00000000       0.00000000       0.00000000       514.295166       1.59761012    
 -0.679867983       1.77955198      -0.00000000       514.295166       1.59761012    
 -0.845947027       1.70686805      -0.00000000       523.364990       1.59205914    
 -0.791365981       1.73284900      -0.00000000       523.364990       1.59205914    
   0.00000000       0.00000000       0.00000000       523.364990       1.59205914    
 -0.899676025       1.67916906      -0.00000000       523.364990       1.59205914    
   0.00000000       0.00000000       0.00000000       517.660339       1.59515321    
 -0.791365981       1.73284900      -0.00000000       517.660339       1.59515321    
 -0.735987008       1.75708497      -0.00000000       517.660339       1.59515321    
 -0.679867983       1.77955198      -0.00000000       517.660339       1.59515321    
 -0.952499986       1.64977801      -0.00000000       531.574463       1.58833742    
 -0.899676025       1.67916906      -0.00000000       531.574463       1.58833742    
   0.00000000       0.00000000       0.00000000       531.574463       1.58833742    
  -1.00436401       1.61872697      -0.00000000       531.574463       1.58833742    
  -1.15368605       1.51592600      -0.00000000       552.011536       1.57964778    
  -1.10500801       1.55176699      -0.00000000       552.011536       1.57964778    
   0.00000000       0.00000000       0.00000000       552.011536       1.57964778    
  -1.20120299       1.47855902      -0.00000000       552.011536       1.57964778    
   0.00000000       0.00000000       0.00000000       541.517334       1.58414125    
  -1.10500801       1.55176699      -0.00000000       541.517334       1.58414125    
  -1.05521798       1.58604598      -0.00000000       541.517334       1.58414125    
  -1.00436401       1.61872697      -0.00000000       541.517334       1.58414125    
  -1.24750996       1.43970299      -0.00000000       559.120789       1.57531011    
  -1.20120299       1.47855902      -0.00000000       559.120789       1.57531011    
   0.00000000       0.00000000       0.00000000       559.120789       1.57531011    
  -1.29255998       1.39939702      -0.00000000       559.120789       1.57531011    
  -1.41972899       1.27019501      -0.00000000       514.357056       1.57259142    
  -1.37871301       1.31459999      -0.00000000       514.357056       1.57259142    
   0.00000000       0.00000000       0.00000000       514.357056       1.57259142    
  -1.45931494       1.22450995      -0.00000000       514.357056       1.57259142    
   0.00000000       0.00000000       0.00000000       551.246765       1.57240868    
  -1.37871301       1.31459999      -0.00000000       551.246765       1.57240868    
  -1.33631003       1.35768199      -0.00000000       551.246765       1.57240868    
  -1.29255998       1.39939702      -0.00000000       551.246765       1.57240868    
  -1.49743104       1.17759299      -0.00000000       462.493134       1.57451892    
  -1.45931494       1.22450995      -0.00000000       462.493134       1.57451892    
   0.00000000       0.00000000       0.00000000       462.493134       1.57451892    
  -1.53403997       1.12949002      -0.00000000       462.493134       1.57451892    
  -1.63445795      0.978555024      -0.00000000       355.940063       1.57931125    
  -1.60258806       1.02992105      -0.00000000       355.940063       1.57931125    
   0.00000000       0.00000000       0.00000000       355.940063       1.57931125    
  -1.66468298      0.926204979      -0.00000000       355.940063       1.57931125    
   0.00000000       0.00000000       0.00000000       408.434113       1.57689750    
  -1.60258806       1.02992105      -0.00000000       408.434113       1.57689750    
  -1.56910396       1.08024895      -0.00000000       408.434113       1.57689750    
  -1.53403997       1.12949002      -0.00000000       408.434113       1.57689750    
  -1.69323206      0.872922003      -0.00000000       306.113892       1.58158636    
  -1.66468298      0.926204979      -0.00000000       306.113892       1.58158636    
   0.00000000       0.00000000       0.00000000       306.113892       1.58158636    
  -1.72007501      0.818759024      -0.00000000       306.113892       1.58158636    
  -1.79011405      0.651548028      -0.00000000       215.826279       1.58502924    
  -1.76854098      0.708016992      -0.00000000       215.826279       1.58502924    
   0.00000000       0.00000000       0.00000000       215.826279       1.58502924    
  -1.80988598      0.594424009      -0.00000000       215.826279       1.58502924    
   0.00000000       0.00000000       0.00000000       259.558990       1.58350646    
  -1.76854098      0.708016992      -0.00000000       259.558990       1.58350646    
  -1.74518704      0.763773024      -0.00000000       259.558990       1.58350646    
  -1.72007501      0.818759024      -0.00000000       259.558990       1.58350646    
  -1.82783401      0.536701024      -0.00000000       174.297760       1.58612645    
  -1.80988598      0.594424009      -0.00000000       174.297760       1.58612645    
   0.00000000       0.00000000       0.00000000       174.297760       1.58612645    
  -1.84394205      0.478437006      -0.00000000       174.297760       1.58612645    
  -1.88107097      0.300992996      -0.00000000       94.8916473       1.58739758    
  -1.87057400      0.360523999      -0.00000000       94.8916473       1.58739758    
   0.00000000       0.00000000       0.00000000       94.8916473       1.58739758    
  -1.88967395      0.241159007      -0.00000000       94.8916473       1.58739758    
   0.00000000       0.00000000       0.00000000       134.132492       1.58690286    
  -1.87057400      0.360523999      -0.00000000       134.132492       1.58690286    
  -1.85819399      0.419692010      -0.00000000       134.132492       1.58690286    
  -1.84394205      0.478437006      -0.00000000       134.132492       1.58690286    
  -1.89637399      0.181081995      -0.00000000       56.1852989       1.58762681    
  -1.88967395      0.241159007      -0.00000000       56.1852989       1.58762681    
   0.00000000       0.00000000       0.00000000       56.1852989       1.58762681    
  -1.90116501      0.120823003      -0.00000000       56.1852989       1.58762681    
  -1.90404105      -6.04420006E-02  -0.00000000       21.2609711      -1.55504811    
  -1.90499997       0.00000000      -0.00000000       21.2609711      -1.55504811    
   0.00000000       0.00000000       0.00000000       21.2609711      -1.55504811    
  -1.90116501     -0.120823003      -0.00000000       21.2609711      -1.55504811    
   0.00000000       0.00000000       0.00000000       17.4987240       1.58815920    
  -1.90499997       0.00000000      -0.00000000       17.4987240       1.58815920    
  -1.90404105       6.04420006E-02  -0.00000000       17.4987240       1.58815920    
  -1.90116501      0.120823003      -0.00000000       17.4987240       1.58815920    
  -1.89637399     -0.181081995      -0.00000000       59.8814659      -1.55447447    
  -1.90116501     -0.120823003      -0.00000000       59.8814659      -1.55447447    
   0.00000000       0.00000000       0.00000000       59.8814659      -1.55447447    
  -1.88967395     -0.241159007      -0.00000000       59.8814659      -1.55447447    
  -1.85819399     -0.419692010      -0.00000000       138.202469      -1.55506539    
  -1.87057400     -0.360523999      -0.00000000       138.202469      -1.55506539    
   0.00000000       0.00000000       0.00000000       138.202469      -1.55506539    
  -1.84394205     -0.478437006      -0.00000000       138.202469      -1.55506539    
   0.00000000       0.00000000       0.00000000       98.6819534      -1.55457163    
  -1.87057400     -0.360523999      -0.00000000       98.6819534      -1.55457163    
  -1.88107097     -0.300992996      -0.00000000       98.6819534      -1.55457163    
  -1.88967395     -0.241159007      -0.00000000       98.6819534      -1.55457163    
  -1.82783401     -0.536701024      -0.00000000       178.631760      -1.55583704    
  -1.84394205     -0.478437006      -0.00000000       178.631760      -1.55583704    
   0.00000000       0.00000000       0.00000000       178.631760      -1.55583704    
  -1.80988598     -0.594424009      -0.00000000       178.631760      -1.55583704    
  -1.74518704     -0.763773024      -0.00000000       264.791351      -1.55849969    
  -1.76854098     -0.708016992      -0.00000000       264.791351      -1.55849969    
   0.00000000       0.00000000       0.00000000       264.791351      -1.55849969    
  -1.72007501     -0.818759024      -0.00000000       264.791351      -1.55849969    
   0.00000000       0.00000000       0.00000000       220.555176      -1.55695343    
  -1.76854098     -0.708016992      -0.00000000       220.555176      -1.55695343    
  -1.79011405     -0.651548028      -0.00000000       220.555176      -1.55695343    
  -1.80988598     -0.594424009      -0.00000000       220.555176      -1.55695343    
  -1.69323206     -0.872922003      -0.00000000       311.623535      -1.56039166    
  -1.72007501     -0.818759024      -0.00000000       311.623535      -1.56039166    
   0.00000000       0.00000000       0.00000000       311.623535      -1.56039166    
  -1.66468298     -0.926204979      -0.00000000       311.623535      -1.56039166    
  -1.56910396      -1.08024895      -0.00000000       413.351715      -1.56491733    
  -1.60258806      -1.02992105      -0.00000000       413.351715      -1.56491733    
   0.00000000       0.00000000       0.00000000       413.351715      -1.56491733    
  -1.53403997      -1.12949002      -0.00000000       413.351715      -1.56491733    
   0.00000000       0.00000000       0.00000000       361.395874      -1.56260121    
  -1.60258806      -1.02992105      -0.00000000       361.395874      -1.56260121    
  -1.63445795     -0.978555024      -0.00000000       361.395874      -1.56260121    
  -1.66468298     -0.926204979      -0.00000000       361.395874      -1.56260121    
  -1.49743104      -1.17759299      -0.00000000       466.245819      -1.56717718    
  -1.53403997      -1.12949002      -0.00000000       466.245819      -1.56717718    
   0.00000000       0.00000000       0.00000000       466.245819      -1.56717718    
  -1.45931494      -1.22450995      -0.00000000       466.245819      -1.56717718    
  -1.33631003      -1.35768199      -0.00000000       551.327209      -1.56910121    
  -1.37871301      -1.31459999      -0.00000000       551.327209      -1.56910121    
   0.00000000       0.00000000       0.00000000       551.327209      -1.56910121    
  -1.29255998      -1.39939702      -0.00000000       551.327209      -1.56910121    
   0.00000000       0.00000000       0.00000000       516.137390      -1.56897712    
  -1.37871301      -1.31459999      -0.00000000       516.137390      -1.56897712    
  -1.41972899      -1.27019501      -0.00000000       516.137390      -1.56897712    
  -1.45931494      -1.22450995      -0.00000000       516.137390      -1.56897712    
  -1.24750996      -1.43970299      -0.00000000       557.557495      -1.56610644    
  -1.29255998      -1.39939702      -0.00000000       557.557495      -1.56610644    
   0.00000000       0.00000000       0.00000000       557.557495      -1.56610644    
  -1.20120299      -1.47855902      -0.00000000       557.557495      -1.56610644    
  -1.05521798      -1.58604598      -0.00000000       537.404602      -1.55695117    
  -1.10500801      -1.55176699      -0.00000000       537.404602      -1.55695117    
   0.00000000       0.00000000       0.00000000       537.404602      -1.55695117    
  -1.00436401      -1.61872697      -0.00000000       537.404602      -1.55695117    
   0.00000000       0.00000000       0.00000000       548.728577      -1.56158829    
  -1.10500801      -1.55176699      -0.00000000       548.728577      -1.56158829    
  -1.15368605      -1.51592600      -0.00000000       548.728577      -1.56158829    
  -1.20120299      -1.47855902      -0.00000000       548.728577      -1.56158829    
 -0.952499986      -1.64977801      -0.00000000       527.297058      -1.55266905    
  -1.00436401      -1.61872697      -0.00000000       527.297058      -1.55266905    
   0.00000000       0.00000000       0.00000000       527.297058      -1.55266905    
 -0.899676025      -1.67916906      -0.00000000       527.297058      -1.55266905    
 -0.735987008      -1.75708497      -0.00000000       514.505615      -1.54587579    
 -0.791365981      -1.73284900      -0.00000000       514.505615      -1.54587579    
   0.00000000       0.00000000       0.00000000       514.505615      -1.54587579    
 -0.679867983      -1.77955198      -0.00000000       514.505615      -1.54587579    
   0.00000000       0.00000000       0.00000000       519.459473      -1.54892659    
 -0.791365981      -1.73284900      -0.00000000       519.459473      -1.54892659    
 -0.845947027      -1.70686805      -0.00000000       519.459473      -1.54892659    
 -0.899676025      -1.67916906      -0.00000000       519.459473      -1.54892659    
 -0.623063982      -1.80022705      -0.00000000       512.234741      -1.54352415    
 -0.679867983      -1.77955198      -0.00000000       512.234741      -1.54352415    
   0.00000000       0.00000000       0.00000000       512.234741      -1.54352415    
 -0.565632999      -1.81908906      -0.00000000       512.234741      -1.54352415    
 -0.390157014      -1.86461902      -0.00000000       512.385681      -1.54055369    
 -0.449120998      -1.85130095      -0.00000000       512.385681      -1.54055369    
   0.00000000       0.00000000       0.00000000       512.385681      -1.54055369    
 -0.330799997      -1.87605906      -0.00000000       512.385681      -1.54055369    
   0.00000000       0.00000000       0.00000000       511.835541      -1.54179096    
 -0.449120998      -1.85130095      -0.00000000       511.835541      -1.54179096    
 -0.507632971      -1.83611906      -0.00000000       511.835541      -1.54179096    
 -0.565632999      -1.81908906      -0.00000000       511.835541      -1.54179096    
 -0.271109998      -1.88560998      -0.00000000       513.331970      -1.53972507    
 -0.330799997      -1.87605906      -0.00000000       513.331970      -1.53972507    
   0.00000000       0.00000000       0.00000000       513.331970      -1.53972507    
 -0.211146995      -1.89326203      -0.00000000       513.331970      -1.53972507    
  -3.02249994E-02  -1.90476000      -0.00000000       514.377869      -1.53898132    
  -9.06440020E-02  -1.90284204      -0.00000000       514.377869      -1.53898132    
   0.00000000       0.00000000       0.00000000       514.377869      -1.53898132    
   3.02249994E-02  -1.90476000      -0.00000000       514.377869      -1.53898132    
   0.00000000       0.00000000       0.00000000       514.167358      -1.53922749    
  -9.06440020E-02  -1.90284204      -0.00000000       514.167358      -1.53922749    
 -0.150970995      -1.89900804      -0.00000000       514.167358      -1.53922749    
 -0.211146995      -1.89326203      -0.00000000       514.167358      -1.53922749    
   9.06440020E-02  -1.90284204      -0.00000000       513.712952      -1.53895283    
   3.02249994E-02  -1.90476000      -0.00000000       513.712952      -1.53895283    
   0.00000000       0.00000000       0.00000000       513.712952      -1.53895283    
  0.150970995      -1.89900804      -0.00000000       513.712952      -1.53895283    
  0.330799997      -1.87605906      -0.00000000       510.582092      -1.53966677    
  0.271109998      -1.88560998      -0.00000000       510.582092      -1.53966677    
   0.00000000       0.00000000       0.00000000       510.582092      -1.53966677    
  0.390157014      -1.86461902      -0.00000000       510.582092      -1.53966677    
   0.00000000       0.00000000       0.00000000       512.379517      -1.53917253    
  0.271109998      -1.88560998      -0.00000000       512.379517      -1.53917253    
  0.211146995      -1.89326203      -0.00000000       512.379517      -1.53917253    
  0.150970995      -1.89900804      -0.00000000       512.379517      -1.53917253    
  0.449120998      -1.85130095      -0.00000000       508.866089      -1.54051805    
  0.390157014      -1.86461902      -0.00000000       508.866089      -1.54051805    
   0.00000000       0.00000000       0.00000000       508.866089      -1.54051805    
  0.507632971      -1.83611906      -0.00000000       508.866089      -1.54051805    
  0.679867983      -1.77955198      -0.00000000       507.422363      -1.54357457    
  0.623063982      -1.80022705      -0.00000000       507.422363      -1.54357457    
   0.00000000       0.00000000       0.00000000       507.422363      -1.54357457    
  0.735987008      -1.75708497      -0.00000000       507.422363      -1.54357457    
   0.00000000       0.00000000       0.00000000       507.574005      -1.54178643    
  0.623063982      -1.80022705      -0.00000000       507.574005      -1.54178643    
  0.565632999      -1.81908906      -0.00000000       507.574005      -1.54178643    
  0.507632971      -1.83611906      -0.00000000       507.574005      -1.54178643    
  0.791365981      -1.73284900      -0.00000000       509.394348      -1.54601336    
  0.735987008      -1.75708497      -0.00000000       509.394348      -1.54601336    
   0.00000000       0.00000000       0.00000000       509.394348      -1.54601336    
  0.845947027      -1.70686805      -0.00000000       509.394348      -1.54601336    
   1.00436401      -1.61872697      -0.00000000       520.330078      -1.55283630    
  0.952499986      -1.64977801      -0.00000000       520.330078      -1.55283630    
   0.00000000       0.00000000       0.00000000       520.330078      -1.55283630    
   1.05521798      -1.58604598      -0.00000000       520.330078      -1.55283630    
   0.00000000       0.00000000       0.00000000       513.634033      -1.54910016    
  0.952499986      -1.64977801      -0.00000000       513.634033      -1.54910016    
  0.899676025      -1.67916906      -0.00000000       513.634033      -1.54910016    
  0.845947027      -1.70686805      -0.00000000       513.634033      -1.54910016    
   1.10500801      -1.55176699      -0.00000000       528.728699      -1.55707061    
   1.05521798      -1.58604598      -0.00000000       528.728699      -1.55707061    
   0.00000000       0.00000000       0.00000000       528.728699      -1.55707061    
   1.15368605      -1.51592600      -0.00000000       528.728699      -1.55707061    
   1.29255998      -1.39939702      -0.00000000       543.244141      -1.56602609    
   1.24750996      -1.43970299      -0.00000000       543.244141      -1.56602609    
   0.00000000       0.00000000       0.00000000       543.244141      -1.56602609    
   1.33631003      -1.35768199      -0.00000000       543.244141      -1.56602609    
   0.00000000       0.00000000       0.00000000       537.671692      -1.56161964    
   1.24750996      -1.43970299      -0.00000000       537.671692      -1.56161964    
   1.20120299      -1.47855902      -0.00000000       537.671692      -1.56161964    