 VARIABLES="X" "Y" "Z" "abs(p) (Pa)" "angle(p) (rad)"
ZONE N=    802,E =     800, F=FEPOINT, ET=QUADRILATERAL
   1.90499997       0.00000000      -0.00000000       595.706238     -0.889085770    
   1.90404105      -6.04420006E-02  -0.00000000       595.706238     -0.889085770    
   0.00000000       0.00000000       0.00000000       595.706238     -0.889085770    
   1.90404105       6.04420006E-02  -0.00000000       595.706238     -0.889085770    
   1.88967395      0.241159007      -0.00000000       594.555054     -0.888725340    
   1.89637399      0.181081995      -0.00000000       594.555054     -0.888725340    
   0.00000000       0.00000000       0.00000000       594.555054     -0.888725340    
   1.88107097      0.300992996      -0.00000000       594.555054     -0.888725340    
   0.00000000       0.00000000       0.00000000       595.398987     -0.888976872    
   1.89637399      0.181081995      -0.00000000       595.398987     -0.888976872    
   1.90116501      0.120823003      -0.00000000       595.398987     -0.888976872    
   1.90404105       6.04420006E-02  -0.00000000       595.398987     -0.888976872    
   1.87057400      0.360523999      -0.00000000       593.817993     -0.888652086    
   1.88107097      0.300992996      -0.00000000       593.817993     -0.888652086    
   0.00000000       0.00000000       0.00000000       593.817993     -0.888652086    
   1.85819399      0.419692010      -0.00000000       593.817993     -0.888652086    
   1.80988598      0.594424009      -0.00000000       594.758240     -0.890186906    
   1.82783401      0.536701024      -0.00000000       594.758240     -0.890186906    
   0.00000000       0.00000000       0.00000000       594.758240     -0.890186906    
   1.79011405      0.651548028      -0.00000000       594.758240     -0.890186906    
   0.00000000       0.00000000       0.00000000       593.635498     -0.889010966    
   1.82783401      0.536701024      -0.00000000       593.635498     -0.889010966    
   1.84394205      0.478437006      -0.00000000       593.635498     -0.889010966    
   1.85819399      0.419692010      -0.00000000       593.635498     -0.889010966    
   1.76854098      0.708016992      -0.00000000       598.337402     -0.892747104    
   1.79011405      0.651548028      -0.00000000       598.337402     -0.892747104    
   0.00000000       0.00000000       0.00000000       598.337402     -0.892747104    
   1.74518704      0.763773024      -0.00000000       598.337402     -0.892747104    
   1.66468298      0.926204979      -0.00000000       614.061096     -0.902048826    
   1.69323206      0.872922003      -0.00000000       614.061096     -0.902048826    
   0.00000000       0.00000000       0.00000000       614.061096     -0.902048826    
   1.63445795      0.978555024      -0.00000000       614.061096     -0.902048826    
   0.00000000       0.00000000       0.00000000       604.766174     -0.896767139    
   1.69323206      0.872922003      -0.00000000       604.766174     -0.896767139    
   1.72007501      0.818759024      -0.00000000       604.766174     -0.896767139    
   1.74518704      0.763773024      -0.00000000       604.766174     -0.896767139    
   1.60258806       1.02992105      -0.00000000       625.367004     -0.907891452    
   1.63445795      0.978555024      -0.00000000       625.367004     -0.907891452    
   0.00000000       0.00000000       0.00000000       625.367004     -0.907891452    
   1.56910396       1.08024895      -0.00000000       625.367004     -0.907891452    
   1.45931494       1.22450995      -0.00000000       645.997986     -0.916610479    
   1.49743104       1.17759299      -0.00000000       645.997986     -0.916610479    
   0.00000000       0.00000000       0.00000000       645.997986     -0.916610479    
   1.41972899       1.27019501      -0.00000000       645.997986     -0.916610479    
   0.00000000       0.00000000       0.00000000       637.350830     -0.913441360    
   1.49743104       1.17759299      -0.00000000       637.350830     -0.913441360    
   1.53403997       1.12949002      -0.00000000       637.350830     -0.913441360    
   1.56910396       1.08024895      -0.00000000       637.350830     -0.913441360    
   1.37871301       1.31459999      -0.00000000       638.253906     -0.910808802    
   1.41972899       1.27019501      -0.00000000       638.253906     -0.910808802    
   0.00000000       0.00000000       0.00000000       638.253906     -0.910808802    
   1.33631003       1.35768199      -0.00000000       638.253906     -0.910808802    
   1.20120299       1.47855902      -0.00000000       541.973267     -0.843708813    
   1.24750996       1.43970299      -0.00000000       541.973267     -0.843708813    
   0.00000000       0.00000000       0.00000000       541.973267     -0.843708813    
   1.15368605       1.51592600      -0.00000000       541.973267     -0.843708813    
   0.00000000       0.00000000       0.00000000       597.916809     -0.885471761    
   1.24750996       1.43970299      -0.00000000       597.916809     -0.885471761    
   1.29255998       1.39939702      -0.00000000       597.916809     -0.885471761    
   1.33631003       1.35768199      -0.00000000       597.916809     -0.885471761    
   1.10500801       1.55176699      -0.00000000       485.235199     -0.789074004    
   1.15368605       1.51592600      -0.00000000       485.235199     -0.789074004    
   0.00000000       0.00000000       0.00000000       485.235199     -0.789074004    
   1.05521798       1.58604598      -0.00000000       485.235199     -0.789074004    
  0.899676025       1.67916906      -0.00000000       385.349701     -0.637008131    
  0.952499986       1.64977801      -0.00000000       385.349701     -0.637008131    
   0.00000000       0.00000000       0.00000000       385.349701     -0.637008131    
  0.845947027       1.70686805      -0.00000000       385.349701     -0.637008131    
   0.00000000       0.00000000       0.00000000       432.402374     -0.720874786    
  0.952499986       1.64977801      -0.00000000       432.402374     -0.720874786    
   1.00436401       1.61872697      -0.00000000       432.402374     -0.720874786    
   1.05521798       1.58604598      -0.00000000       432.402374     -0.720874786    
  0.791365981       1.73284900      -0.00000000       345.550690     -0.536226511    
  0.845947027       1.70686805      -0.00000000       345.550690     -0.536226511    
   0.00000000       0.00000000       0.00000000       345.550690     -0.536226511    
  0.735987008       1.75708497      -0.00000000       345.550690     -0.536226511    
  0.565632999       1.81908906      -0.00000000       289.417755     -0.278099090    
  0.623063982       1.80022705      -0.00000000       289.417755     -0.278099090    
   0.00000000       0.00000000       0.00000000       289.417755     -0.278099090    
  0.507632971       1.83611906      -0.00000000       289.417755     -0.278099090    
   0.00000000       0.00000000       0.00000000       313.439240     -0.416739553    
  0.623063982       1.80022705      -0.00000000       313.439240     -0.416739553    
  0.679867983       1.77955198      -0.00000000       313.439240     -0.416739553    
  0.735987008       1.75708497      -0.00000000       313.439240     -0.416739553    
  0.449120998       1.85130095      -0.00000000       273.837830     -0.122776926    
  0.507632971       1.83611906      -0.00000000       273.837830     -0.122776926    
   0.00000000       0.00000000       0.00000000       273.837830     -0.122776926    
  0.390157014       1.86461902      -0.00000000       273.837830     -0.122776926    
  0.211146995       1.89326203      -0.00000000       269.230530      0.207515046    
  0.271109998       1.88560998      -0.00000000       269.230530      0.207515046    
   0.00000000       0.00000000       0.00000000       269.230530      0.207515046    
  0.150970995       1.89900804      -0.00000000       269.230530      0.207515046    
   0.00000000       0.00000000       0.00000000       267.144501       4.22894694E-02
  0.271109998       1.88560998      -0.00000000       267.144501       4.22894694E-02
  0.330799997       1.87605906      -0.00000000       267.144501       4.22894694E-02
  0.390157014       1.86461902      -0.00000000       267.144501       4.22894694E-02
   9.06440020E-02   1.90284204      -0.00000000       279.595886      0.364225894    
  0.150970995       1.89900804      -0.00000000       279.595886      0.364225894    
   0.00000000       0.00000000       0.00000000       279.595886      0.364225894    
   3.02249994E-02   1.90476000      -0.00000000       279.595886      0.364225894    
 -0.150970995       1.89900804      -0.00000000       321.066223      0.623808861    
  -9.06440020E-02   1.90284204      -0.00000000       321.066223      0.623808861    
   0.00000000       0.00000000       0.00000000       321.066223      0.623808861    
 -0.211146995       1.89326203      -0.00000000       321.066223      0.623808861    
   0.00000000       0.00000000       0.00000000       297.297913      0.504260421    
  -9.06440020E-02   1.90284204      -0.00000000       297.297913      0.504260421    
  -3.02249994E-02   1.90476000      -0.00000000       297.297913      0.504260421    
   3.02249994E-02   1.90476000      -0.00000000       297.297913      0.504260421    
 -0.271109998       1.88560998      -0.00000000       349.818939      0.723475516    
 -0.211146995       1.89326203      -0.00000000       349.818939      0.723475516    
   0.00000000       0.00000000       0.00000000       349.818939      0.723475516    
 -0.330799997       1.87605906      -0.00000000       349.818939      0.723475516    
 -0.507632971       1.83611906      -0.00000000       420.578705      0.872638226    
 -0.449120998       1.85130095      -0.00000000       420.578705      0.872638226    
   0.00000000       0.00000000       0.00000000       420.578705      0.872638226    
 -0.565632999       1.81908906      -0.00000000       420.578705      0.872638226    
   0.00000000       0.00000000       0.00000000       383.177887      0.805723667    
 -0.449120998       1.85130095      -0.00000000       383.177887      0.805723667    
 -0.390157014       1.86461902      -0.00000000       383.177887      0.805723667    
 -0.330799997       1.87605906      -0.00000000       383.177887      0.805723667    
 -0.623063982       1.80022705      -0.00000000       461.846100      0.926652551    
 -0.565632999       1.81908906      -0.00000000       461.846100      0.926652551    
   0.00000000       0.00000000       0.00000000       461.846100      0.926652551    
 -0.679867983       1.77955198      -0.00000000       461.846100      0.926652551    
 -0.845947027       1.70686805      -0.00000000       557.380554       1.00533140    
 -0.791365981       1.73284900      -0.00000000       557.380554       1.00533140    
   0.00000000       0.00000000       0.00000000       557.380554       1.00533140    
 -0.899676025       1.67916906      -0.00000000       557.380554       1.00533140    
   0.00000000       0.00000000       0.00000000       507.444946      0.970240772    
 -0.791365981       1.73284900      -0.00000000       507.444946      0.970240772    
 -0.735987008       1.75708497      -0.00000000       507.444946      0.970240772    
 -0.679867983       1.77955198      -0.00000000       507.444946      0.970240772    
 -0.952499986       1.64977801      -0.00000000       611.460999       1.03341043    
 -0.899676025       1.67916906      -0.00000000       611.460999       1.03341043    
   0.00000000       0.00000000       0.00000000       611.460999       1.03341043    
  -1.00436401       1.61872697      -0.00000000       611.460999       1.03341043    
  -1.15368605       1.51592600      -0.00000000       727.154358       1.07291579    
  -1.10500801       1.55176699      -0.00000000       727.154358       1.07291579    
   0.00000000       0.00000000       0.00000000       727.154358       1.07291579    
  -1.20120299       1.47855902      -0.00000000       727.154358       1.07291579    
   0.00000000       0.00000000       0.00000000       668.587952       1.05558801    
  -1.10500801       1.55176699      -0.00000000       668.587952       1.05558801    
  -1.05521798       1.58604598      -0.00000000       668.587952       1.05558801    
  -1.00436401       1.61872697      -0.00000000       668.587952       1.05558801    
  -1.24750996       1.43970299      -0.00000000       782.888672       1.08611274    
  -1.20120299       1.47855902      -0.00000000       782.888672       1.08611274    
   0.00000000       0.00000000       0.00000000       782.888672       1.08611274    
  -1.29255998       1.39939702      -0.00000000       782.888672       1.08611274    
  -1.41972899       1.27019501      -0.00000000       829.442627       1.10155511    
  -1.37871301       1.31459999      -0.00000000       829.442627       1.10155511    
   0.00000000       0.00000000       0.00000000       829.442627       1.10155511    
  -1.45931494       1.22450995      -0.00000000       829.442627       1.10155511    
   0.00000000       0.00000000       0.00000000       822.438171       1.09547281    
  -1.37871301       1.31459999      -0.00000000       822.438171       1.09547281    
  -1.33631003       1.35768199      -0.00000000       822.438171       1.09547281    
  -1.29255998       1.39939702      -0.00000000       822.438171       1.09547281    
  -1.49743104       1.17759299      -0.00000000       819.851013       1.10591209    
  -1.45931494       1.22450995      -0.00000000       819.851013       1.10591209    
   0.00000000       0.00000000       0.00000000       819.851013       1.10591209    
  -1.53403997       1.12949002      -0.00000000       819.851013       1.10591209    
  -1.63445795      0.978555024      -0.00000000       796.402710       1.11217237    
  -1.60258806       1.02992105      -0.00000000       796.402710       1.11217237    
   0.00000000       0.00000000       0.00000000       796.402710       1.11217237    
  -1.66468298      0.926204979      -0.00000000       796.402710       1.11217237    
   0.00000000       0.00000000       0.00000000       807.487488       1.10935986    
  -1.60258806       1.02992105      -0.00000000       807.487488       1.10935986    
  -1.56910396       1.08024895      -0.00000000       807.487488       1.10935986    
  -1.53403997       1.12949002      -0.00000000       807.487488       1.10935986    
  -1.69323206      0.872922003      -0.00000000       787.854553       1.11448574    
  -1.66468298      0.926204979      -0.00000000       787.854553       1.11448574    
   0.00000000       0.00000000       0.00000000       787.854553       1.11448574    
  -1.72007501      0.818759024      -0.00000000       787.854553       1.11448574    
  -1.79011405      0.651548028      -0.00000000       780.241577       1.11807382    
  -1.76854098      0.708016992      -0.00000000       780.241577       1.11807382    
   0.00000000       0.00000000       0.00000000       780.241577       1.11807382    
  -1.80988598      0.594424009      -0.00000000       780.241577       1.11807382    
   0.00000000       0.00000000       0.00000000       782.595642       1.11643112    
  -1.76854098      0.708016992      -0.00000000       782.595642       1.11643112    
  -1.74518704      0.763773024      -0.00000000       782.595642       1.11643112    
  -1.72007501      0.818759024      -0.00000000       782.595642       1.11643112    
  -1.82783401      0.536701024      -0.00000000       780.114868       1.11943483    
  -1.80988598      0.594424009      -0.00000000       780.114868       1.11943483    
   0.00000000       0.00000000       0.00000000       780.114868       1.11943483    
  -1.84394205      0.478437006      -0.00000000       780.114868       1.11943483    
  -1.88107097      0.300992996      -0.00000000       782.718262       1.12130392    
  -1.87057400      0.360523999      -0.00000000       782.718262       1.12130392    
   0.00000000       0.00000000       0.00000000       782.718262       1.12130392    
  -1.88967395      0.241159007      -0.00000000       782.718262       1.12130392    
   0.00000000       0.00000000       0.00000000       781.125366       1.12051332    
  -1.87057400      0.360523999      -0.00000000       781.125366       1.12051332    
  -1.85819399      0.419692010      -0.00000000       781.125366       1.12051332    
  -1.84394205      0.478437006      -0.00000000       781.125366       1.12051332    
  -1.89637399      0.181081995      -0.00000000       784.152222       1.12181294    
  -1.88967395      0.241159007      -0.00000000       784.152222       1.12181294    
   0.00000000       0.00000000       0.00000000       784.152222       1.12181294    
  -1.90116501      0.120823003      -0.00000000       784.152222       1.12181294    
  -1.90404105      -6.04420006E-02  -0.00000000       785.026978       1.12204373    
  -1.90499997       0.00000000      -0.00000000       785.026978       1.12204373    
   0.00000000       0.00000000       0.00000000       785.026978       1.12204373    
  -1.90116501     -0.120823003      -0.00000000       785.026978       1.12204373    
   0.00000000       0.00000000       0.00000000       784.936584       1.12205625    
  -1.90499997       0.00000000      -0.00000000       784.936584       1.12205625    
  -1.90404105       6.04420006E-02  -0.00000000       784.936584       1.12205625    
  -1.90116501      0.120823003      -0.00000000       784.936584       1.12205625    
  -1.89637399     -0.181081995      -0.00000000       784.480042       1.12177765    
  -1.90116501     -0.120823003      -0.00000000       784.480042       1.12177765    
   0.00000000       0.00000000       0.00000000       784.480042       1.12177765    
  -1.88967395     -0.241159007      -0.00000000       784.480042       1.12177765    
  -1.85819399     -0.419692010      -0.00000000       782.373047       1.12042594    
  -1.87057400     -0.360523999      -0.00000000       782.373047       1.12042594    
   0.00000000       0.00000000       0.00000000       782.373047       1.12042594    
  -1.84394205     -0.478437006      -0.00000000       782.373047       1.12042594    
   0.00000000       0.00000000       0.00000000       783.347595       1.12123978    
  -1.87057400     -0.360523999      -0.00000000       783.347595       1.12123978    
  -1.88107097     -0.300992996      -0.00000000       783.347595       1.12123978    
  -1.88967395     -0.241159007      -0.00000000       783.347595       1.12123978    
  -1.82783401     -0.536701024      -0.00000000       782.088318       1.11935675    
  -1.84394205     -0.478437006      -0.00000000       782.088318       1.11935675    
   0.00000000       0.00000000       0.00000000       782.088318       1.11935675    
  -1.80988598     -0.594424009      -0.00000000       782.088318       1.11935675    
  -1.74518704     -0.763773024      -0.00000000       786.754089       1.11644661    
  -1.76854098     -0.708016992      -0.00000000       786.754089       1.11644661    
   0.00000000       0.00000000       0.00000000       786.754089       1.11644661    
  -1.72007501     -0.818759024      -0.00000000       786.754089       1.11644661    
   0.00000000       0.00000000       0.00000000       783.197083       1.11803067    
  -1.76854098     -0.708016992      -0.00000000       783.197083       1.11803067    
  -1.79011405     -0.651548028      -0.00000000       783.197083       1.11803067    
  -1.80988598     -0.594424009      -0.00000000       783.197083       1.11803067    
  -1.69323206     -0.872922003      -0.00000000       792.997803       1.11454666    
  -1.72007501     -0.818759024      -0.00000000       792.997803       1.11454666    
   0.00000000       0.00000000       0.00000000       792.997803       1.11454666    
  -1.66468298     -0.926204979      -0.00000000       792.997803       1.11454666    
  -1.56910396      -1.08024895      -0.00000000       812.808472       1.10937583    
  -1.60258806      -1.02992105      -0.00000000       812.808472       1.10937583    
   0.00000000       0.00000000       0.00000000       812.808472       1.10937583    
  -1.53403997      -1.12949002      -0.00000000       812.808472       1.10937583    
   0.00000000       0.00000000       0.00000000       801.961975       1.11223626    
  -1.60258806      -1.02992105      -0.00000000       801.961975       1.11223626    
  -1.63445795     -0.978555024      -0.00000000       801.961975       1.11223626    
  -1.66468298     -0.926204979      -0.00000000       801.961975       1.11223626    
  -1.49743104      -1.17759299      -0.00000000       824.120483       1.10581338    
  -1.53403997      -1.12949002      -0.00000000       824.120483       1.10581338    
   0.00000000       0.00000000       0.00000000       824.120483       1.10581338    
  -1.45931494      -1.22450995      -0.00000000       824.120483       1.10581338    
  -1.33631003      -1.35768199      -0.00000000       823.050415       1.09490430    
  -1.37871301      -1.31459999      -0.00000000       823.050415       1.09490430    
   0.00000000       0.00000000       0.00000000       823.050415       1.09490430    
  -1.29255998      -1.39939702      -0.00000000       823.050415       1.09490430    
   0.00000000       0.00000000       0.00000000       831.896423       1.10126507    
  -1.37871301      -1.31459999      -0.00000000       831.896423       1.10126507    
  -1.41972899      -1.27019501      -0.00000000       831.896423       1.10126507    
  -1.45931494      -1.22450995      -0.00000000       831.896423       1.10126507    
  -1.24750996      -1.43970299      -0.00000000       781.413330       1.08508384    
  -1.29255998      -1.39939702      -0.00000000       781.413330       1.08508384    
   0.00000000       0.00000000       0.00000000       781.413330       1.08508384    
  -1.20120299      -1.47855902      -0.00000000       781.413330       1.08508384    
  -1.05521798      -1.58604598      -0.00000000       663.509399       1.05341280    
  -1.10500801      -1.55176699      -0.00000000       663.509399       1.05341280    
   0.00000000       0.00000000       0.00000000       663.509399       1.05341280    
  -1.00436401      -1.61872697      -0.00000000       663.509399       1.05341280    
   0.00000000       0.00000000       0.00000000       723.510376       1.07134140    
  -1.10500801      -1.55176699      -0.00000000       723.510376       1.07134140    
  -1.15368605      -1.51592600      -0.00000000       723.510376       1.07134140    
  -1.20120299      -1.47855902      -0.00000000       723.510376       1.07134140    
 -0.952499986      -1.64977801      -0.00000000       605.734436       1.03057039    
  -1.00436401      -1.61872697      -0.00000000       605.734436       1.03057039    
   0.00000000       0.00000000       0.00000000       605.734436       1.03057039    
 -0.899676025      -1.67916906      -0.00000000       605.734436       1.03057039    
 -0.735987008      -1.75708497      -0.00000000       502.253632      0.965916514    
 -0.791365981      -1.73284900      -0.00000000       502.253632      0.965916514    
   0.00000000       0.00000000       0.00000000       502.253632      0.965916514    
 -0.679867983      -1.77955198      -0.00000000       502.253632      0.965916514    
   0.00000000       0.00000000       0.00000000       551.640930       1.00175869    
 -0.791365981      -1.73284900      -0.00000000       551.640930       1.00175869    
 -0.845947027      -1.70686805      -0.00000000       551.640930       1.00175869    
 -0.899676025      -1.67916906      -0.00000000       551.640930       1.00175869    
 -0.623063982      -1.80022705      -0.00000000       457.374207      0.921429276    
 -0.679867983      -1.77955198      -0.00000000       457.374207      0.921429276    
   0.00000000       0.00000000       0.00000000       457.374207      0.921429276    
 -0.565632999      -1.81908906      -0.00000000       457.374207      0.921429276    
 -0.390157014      -1.86461902      -0.00000000       379.830170      0.798235953    
 -0.449120998      -1.85130095      -0.00000000       379.830170      0.798235953    
   0.00000000       0.00000000       0.00000000       379.830170      0.798235953    
 -0.330799997      -1.87605906      -0.00000000       379.830170      0.798235953    
   0.00000000       0.00000000       0.00000000       416.666351      0.866264760    
 -0.449120998      -1.85130095      -0.00000000       416.666351      0.866264760    
 -0.507632971      -1.83611906      -0.00000000       416.666351      0.866264760    
 -0.565632999      -1.81908906      -0.00000000       416.666351      0.866264760    
 -0.271109998      -1.88560998      -0.00000000       347.100769      0.714903474    
 -0.330799997      -1.87605906      -0.00000000       347.100769      0.714903474    
   0.00000000       0.00000000       0.00000000       347.100769      0.714903474    
 -0.211146995      -1.89326203      -0.00000000       347.100769      0.714903474    
  -3.02249994E-02  -1.90476000      -0.00000000       295.385437      0.492179751    
  -9.06440020E-02  -1.90284204      -0.00000000       295.385437      0.492179751    
   0.00000000       0.00000000       0.00000000       295.385437      0.492179751    
   3.02249994E-02  -1.90476000      -0.00000000       295.385437      0.492179751    
   0.00000000       0.00000000       0.00000000       318.773163      0.613784015    
  -9.06440020E-02  -1.90284204      -0.00000000       318.773163      0.613784015    
 -0.150970995      -1.89900804      -0.00000000       318.773163      0.613784015    
 -0.211146995      -1.89326203      -0.00000000       318.773163      0.613784015    
   9.06440020E-02  -1.90284204      -0.00000000       278.216187      0.350465566    
   3.02249994E-02  -1.90476000      -0.00000000       278.216187      0.350465566    
   0.00000000       0.00000000       0.00000000       278.216187      0.350465566    
  0.150970995      -1.89900804      -0.00000000       278.216187      0.350465566    
  0.330799997      -1.87605906      -0.00000000       267.174316       2.66310759E-02
  0.271109998      -1.88560998      -0.00000000       267.174316       2.66310759E-02
   0.00000000       0.00000000       0.00000000       267.174316       2.66310759E-02
  0.390157014      -1.86461902      -0.00000000       267.174316       2.66310759E-02
   0.00000000       0.00000000       0.00000000       268.523926      0.192792833    
  0.271109998      -1.88560998      -0.00000000       268.523926      0.192792833    
  0.211146995      -1.89326203      -0.00000000       268.523926      0.192792833    
  0.150970995      -1.89900804      -0.00000000       268.523926      0.192792833    
  0.449120998      -1.85130095      -0.00000000       274.784393     -0.139137536    
  0.390157014      -1.86461902      -0.00000000       274.784393     -0.139137536    
   0.00000000       0.00000000       0.00000000       274.784393     -0.139137536    
  0.507632971      -1.83611906      -0.00000000       274.784393     -0.139137536    
  0.679867983      -1.77955198      -0.00000000       316.397827     -0.431073487    
  0.623063982      -1.80022705      -0.00000000       316.397827     -0.431073487    
   0.00000000       0.00000000       0.00000000       316.397827     -0.431073487    
  0.735987008      -1.75708497      -0.00000000       316.397827     -0.431073487    
   0.00000000       0.00000000       0.00000000       291.346527     -0.293918937    
  0.623063982      -1.80022705      -0.00000000       291.346527     -0.293918937    
  0.565632999      -1.81908906      -0.00000000       291.346527     -0.293918937    
  0.507632971      -1.83611906      -0.00000000       291.346527     -0.293918937    
  0.791365981      -1.73284900      -0.00000000       349.630890     -0.549062729    
  0.735987008      -1.75708497      -0.00000000       349.630890     -0.549062729    
   0.00000000       0.00000000       0.00000000       349.630890     -0.549062729    
  0.845947027      -1.70686805      -0.00000000       349.630890     -0.549062729    
   1.00436401      -1.61872697      -0.00000000       437.720398     -0.729518414    
  0.952499986      -1.64977801      -0.00000000       437.720398     -0.729518414    
   0.00000000       0.00000000       0.00000000       437.720398     -0.729518414    
   1.05521798      -1.58604598      -0.00000000       437.720398     -0.729518414    
   0.00000000       0.00000000       0.00000000       390.337524     -0.647973895    
  0.952499986      -1.64977801      -0.00000000       390.337524     -0.647973895    
  0.899676025      -1.67916906      -0.00000000       390.337524     -0.647973895    
  0.845947027      -1.70686805      -0.00000000       390.337524     -0.647973895    
   1.10500801      -1.55176699      -0.00000000       490.191193     -0.795378149    
   1.05521798      -1.58604598      -0.00000000       490.191193     -0.795378149    
   0.00000000       0.00000000       0.00000000       490.191193     -0.795378149    
   1.15368605      -1.51592600      -0.00000000       490.191193     -0.795378149    
   1.29255998      -1.39939702      -0.00000000       599.641541     -0.887605011    
   1.24750996      -1.43970299      -0.00000000       599.641541     -0.887605011    
   0.00000000       0.00000000       0.00000000       599.641541     -0.887605011    
   1.33631003      -1.35768199      -0.00000000       599.641541     -0.887605011    
   0.00000000       0.00000000       0.00000000       545.716370     -0.847799718    
   1.24750996      -1.43970299      -0.00000000       545.716370     -0.847799718    
   1.20120299      -1.47855902      -0.00000000       545.716370     -0.847799718    