 VARIABLES="X" "Y" "Z" "abs(p) (Pa)" "angle(p) (rad)"
ZONE N=    802,E =     800, F=FEPOINT, ET=QUADRILATERAL
   1.90499997       0.00000000      -0.00000000       1.81634307       1.86208010    
   1.90404105      -6.04420006E-02  -0.00000000       1.81634307       1.86208010    
   0.00000000       0.00000000       0.00000000       1.81634307       1.86208010    
   1.90404105       6.04420006E-02  -0.00000000       1.81634307       1.86208010    
   1.88967395      0.241159007      -0.00000000       1.82697070       1.86028171    
   1.89637399      0.181081995      -0.00000000       1.82697070       1.86028171    
   0.00000000       0.00000000       0.00000000       1.82697070       1.86028171    
   1.88107097      0.300992996      -0.00000000       1.82697070       1.86028171    
   0.00000000       0.00000000       0.00000000       1.81886959       1.86165011    
   1.89637399      0.181081995      -0.00000000       1.81886959       1.86165011    
   1.90116501      0.120823003      -0.00000000       1.81886959       1.86165011    
   1.90404105       6.04420006E-02  -0.00000000       1.81886959       1.86165011    
   1.87057400      0.360523999      -0.00000000       1.84212685       1.85775578    
   1.88107097      0.300992996      -0.00000000       1.84212685       1.85775578    
   0.00000000       0.00000000       0.00000000       1.84212685       1.85775578    
   1.85819399      0.419692010      -0.00000000       1.84212685       1.85775578    
   1.80988598      0.594424009      -0.00000000       1.90053689       1.84842229    
   1.82783401      0.536701024      -0.00000000       1.90053689       1.84842229    
   0.00000000       0.00000000       0.00000000       1.90053689       1.84842229    
   1.79011405      0.651548028      -0.00000000       1.90053689       1.84842229    
   0.00000000       0.00000000       0.00000000       1.86556423       1.85393691    
   1.82783401      0.536701024      -0.00000000       1.86556423       1.85393691    
   1.84394205      0.478437006      -0.00000000       1.86556423       1.85393691    
   1.85819399      0.419692010      -0.00000000       1.86556423       1.85393691    
   1.76854098      0.708016992      -0.00000000       1.94795167       1.84127331    
   1.79011405      0.651548028      -0.00000000       1.94795167       1.84127331    
   0.00000000       0.00000000       0.00000000       1.94795167       1.84127331    
   1.74518704      0.763773024      -0.00000000       1.94795167       1.84127331    
   1.66468298      0.926204979      -0.00000000       2.08197641       1.82283509    
   1.69323206      0.872922003      -0.00000000       2.08197641       1.82283509    
   0.00000000       0.00000000       0.00000000       2.08197641       1.82283509    
   1.63445795      0.978555024      -0.00000000       2.08197641       1.82283509    
   0.00000000       0.00000000       0.00000000       2.00859714       1.83262539    
   1.69323206      0.872922003      -0.00000000       2.00859714       1.83262539    
   1.72007501      0.818759024      -0.00000000       2.00859714       1.83262539    
   1.74518704      0.763773024      -0.00000000       2.00859714       1.83262539    
   1.60258806       1.02992105      -0.00000000       2.16563869       1.81247258    
   1.63445795      0.978555024      -0.00000000       2.16563869       1.81247258    
   0.00000000       0.00000000       0.00000000       2.16563869       1.81247258    
   1.56910396       1.08024895      -0.00000000       2.16563869       1.81247258    
   1.45931494       1.22450995      -0.00000000       2.32864189       1.79428673    
   1.49743104       1.17759299      -0.00000000       2.32864189       1.79428673    
   0.00000000       0.00000000       0.00000000       2.32864189       1.79428673    
   1.41972899       1.27019501      -0.00000000       2.32864189       1.79428673    
   0.00000000       0.00000000       0.00000000       2.25159407       1.80258954    
   1.49743104       1.17759299      -0.00000000       2.25159407       1.80258954    
   1.53403997       1.12949002      -0.00000000       2.25159407       1.80258954    
   1.56910396       1.08024895      -0.00000000       2.25159407       1.80258954    
   1.37871301       1.31459999      -0.00000000       2.36404037       1.79060841    
   1.41972899       1.27019501      -0.00000000       2.36404037       1.79060841    
   0.00000000       0.00000000       0.00000000       2.36404037       1.79060841    
   1.33631003       1.35768199      -0.00000000       2.36404037       1.79060841    
   1.20120299       1.47855902      -0.00000000       2.23126793       1.80477297    
   1.24750996       1.43970299      -0.00000000       2.23126793       1.80477297    
   0.00000000       0.00000000       0.00000000       2.23126793       1.80477297    
   1.15368605       1.51592600      -0.00000000       2.23126793       1.80477297    
   0.00000000       0.00000000       0.00000000       2.31859422       1.79527926    
   1.24750996       1.43970299      -0.00000000       2.31859422       1.79527926    
   1.29255998       1.39939702      -0.00000000       2.31859422       1.79527926    
   1.33631003       1.35768199      -0.00000000       2.31859422       1.79527926    
   1.10500801       1.55176699      -0.00000000       2.13814878       1.81569910    
   1.15368605       1.51592600      -0.00000000       2.13814878       1.81569910    
   0.00000000       0.00000000       0.00000000       2.13814878       1.81569910    
   1.05521798       1.58604598      -0.00000000       2.13814878       1.81569910    
  0.899676025       1.67916906      -0.00000000       1.97824991       1.83681464    
  0.952499986       1.64977801      -0.00000000       1.97824991       1.83681464    
   0.00000000       0.00000000       0.00000000       1.97824991       1.83681464    
  0.845947027       1.70686805      -0.00000000       1.97824991       1.83681464    
   0.00000000       0.00000000       0.00000000       2.05201483       1.82666671    
  0.952499986       1.64977801      -0.00000000       2.05201483       1.82666671    
   1.00436401       1.61872697      -0.00000000       2.05201483       1.82666671    
   1.05521798       1.58604598      -0.00000000       2.05201483       1.82666671    
  0.791365981       1.73284900      -0.00000000       1.91847265       1.84561718    
  0.845947027       1.70686805      -0.00000000       1.91847265       1.84561718    
   0.00000000       0.00000000       0.00000000       1.91847265       1.84561718    
  0.735987008       1.75708497      -0.00000000       1.91847265       1.84561718    
  0.565632999       1.81908906      -0.00000000       1.83954048       1.85814142    
  0.623063982       1.80022705      -0.00000000       1.83954048       1.85814142    
   0.00000000       0.00000000       0.00000000       1.83954048       1.85814142    
  0.507632971       1.83611906      -0.00000000       1.83954048       1.85814142    
   0.00000000       0.00000000       0.00000000       1.87273693       1.85273910    
  0.623063982       1.80022705      -0.00000000       1.87273693       1.85273910    
  0.679867983       1.77955198      -0.00000000       1.87273693       1.85273910    
  0.735987008       1.75708497      -0.00000000       1.87273693       1.85273910    
  0.449120998       1.85130095      -0.00000000       1.81662154       1.86199319    
  0.507632971       1.83611906      -0.00000000       1.81662154       1.86199319    
   0.00000000       0.00000000       0.00000000       1.81662154       1.86199319    
  0.390157014       1.86461902      -0.00000000       1.81662154       1.86199319    
  0.211146995       1.89326203      -0.00000000       1.79287231       1.86610186    
  0.271109998       1.88560998      -0.00000000       1.79287231       1.86610186    
   0.00000000       0.00000000       0.00000000       1.79287231       1.86610186    
  0.150970995       1.89900804      -0.00000000       1.79287231       1.86610186    
   0.00000000       0.00000000       0.00000000       1.80120885       1.86464357    
  0.271109998       1.88560998      -0.00000000       1.80120885       1.86464357    
  0.330799997       1.87605906      -0.00000000       1.80120885       1.86464357    
  0.390157014       1.86461902      -0.00000000       1.80120885       1.86464357    
   9.06440020E-02   1.90284204      -0.00000000       1.78940868       1.86671352    
  0.150970995       1.89900804      -0.00000000       1.78940868       1.86671352    
   0.00000000       0.00000000       0.00000000       1.78940868       1.86671352    
   3.02249994E-02   1.90476000      -0.00000000       1.78940868       1.86671352    
 -0.150970995       1.89900804      -0.00000000       1.79347610       1.86599350    
  -9.06440020E-02   1.90284204      -0.00000000       1.79347610       1.86599350    
   0.00000000       0.00000000       0.00000000       1.79347610       1.86599350    
 -0.211146995       1.89326203      -0.00000000       1.79347610       1.86599350    
   0.00000000       0.00000000       0.00000000       1.78948879       1.86669850    
  -9.06440020E-02   1.90284204      -0.00000000       1.78948879       1.86669850    
  -3.02249994E-02   1.90476000      -0.00000000       1.78948879       1.86669850    
   3.02249994E-02   1.90476000      -0.00000000       1.78948879       1.86669850    
 -0.271109998       1.88560998      -0.00000000       1.80381393       1.86419332    
 -0.211146995       1.89326203      -0.00000000       1.80381393       1.86419332    
   0.00000000       0.00000000       0.00000000       1.80381393       1.86419332    
 -0.330799997       1.87605906      -0.00000000       1.80381393       1.86419332    
 -0.507632971       1.83611906      -0.00000000       1.84633827       1.85702491    
 -0.449120998       1.85130095      -0.00000000       1.84633827       1.85702491    
   0.00000000       0.00000000       0.00000000       1.84633827       1.85702491    
 -0.565632999       1.81908906      -0.00000000       1.84633827       1.85702491    
   0.00000000       0.00000000       0.00000000       1.82099152       1.86125410    
 -0.449120998       1.85130095      -0.00000000       1.82099152       1.86125410    
 -0.390157014       1.86461902      -0.00000000       1.82099152       1.86125410    
 -0.330799997       1.87605906      -0.00000000       1.82099152       1.86125410    
 -0.623063982       1.80022705      -0.00000000       1.88324380       1.85108435    
 -0.565632999       1.81908906      -0.00000000       1.88324380       1.85108435    
   0.00000000       0.00000000       0.00000000       1.88324380       1.85108435    
 -0.679867983       1.77955198      -0.00000000       1.88324380       1.85108435    
 -0.845947027       1.70686805      -0.00000000       1.99511874       1.83445919    
 -0.791365981       1.73284900      -0.00000000       1.99511874       1.83445919    
   0.00000000       0.00000000       0.00000000       1.99511874       1.83445919    
 -0.899676025       1.67916906      -0.00000000       1.99511874       1.83445919    
   0.00000000       0.00000000       0.00000000       1.93248999       1.84352434    
 -0.791365981       1.73284900      -0.00000000       1.93248999       1.84352434    
 -0.735987008       1.75708497      -0.00000000       1.93248999       1.84352434    
 -0.679867983       1.77955198      -0.00000000       1.93248999       1.84352434    
 -0.952499986       1.64977801      -0.00000000       2.07018089       1.82431948    
 -0.899676025       1.67916906      -0.00000000       2.07018089       1.82431948    
   0.00000000       0.00000000       0.00000000       2.07018089       1.82431948    
  -1.00436401       1.61872697      -0.00000000       2.07018089       1.82431948    
  -1.15368605       1.51592600      -0.00000000       2.24192023       1.80361688    
  -1.10500801       1.55176699      -0.00000000       2.24192023       1.80361688    
   0.00000000       0.00000000       0.00000000       2.24192023       1.80361688    
  -1.20120299       1.47855902      -0.00000000       2.24192023       1.80361688    
   0.00000000       0.00000000       0.00000000       2.15505576       1.81369436    
  -1.10500801       1.55176699      -0.00000000       2.15505576       1.81369436    
  -1.05521798       1.58604598      -0.00000000       2.15505576       1.81369436    
  -1.00436401       1.61872697      -0.00000000       2.15505576       1.81369436    
  -1.24750996       1.43970299      -0.00000000       2.31970525       1.79516912    
  -1.20120299       1.47855902      -0.00000000       2.31970525       1.79516912    
   0.00000000       0.00000000       0.00000000       2.31970525       1.79516912    
  -1.29255998       1.39939702      -0.00000000       2.31970525       1.79516912    
  -1.41972899       1.27019501      -0.00000000       2.31053472       1.79608083    
  -1.37871301       1.31459999      -0.00000000       2.31053472       1.79608083    
   0.00000000       0.00000000       0.00000000       2.31053472       1.79608083    
  -1.45931494       1.22450995      -0.00000000       2.31053472       1.79608083    
   0.00000000       0.00000000       0.00000000       2.35553026       1.79142153    
  -1.37871301       1.31459999      -0.00000000       2.35553026       1.79142153    
  -1.33631003       1.35768199      -0.00000000       2.35553026       1.79142153    
  -1.29255998       1.39939702      -0.00000000       2.35553026       1.79142153    
  -1.49743104       1.17759299      -0.00000000       2.22406125       1.80554581    
  -1.45931494       1.22450995      -0.00000000       2.22406125       1.80554581    
   0.00000000       0.00000000       0.00000000       2.22406125       1.80554581    
  -1.53403997       1.12949002      -0.00000000       2.22406125       1.80554581    
  -1.63445795      0.978555024      -0.00000000       2.04644871       1.82737112    
  -1.60258806       1.02992105      -0.00000000       2.04644871       1.82737112    
   0.00000000       0.00000000       0.00000000       2.04644871       1.82737112    
  -1.66468298      0.926204979      -0.00000000       2.04644871       1.82737112    
   0.00000000       0.00000000       0.00000000       2.13187003       1.81643164    
  -1.60258806       1.02992105      -0.00000000       2.13187003       1.81643164    
  -1.56910396       1.08024895      -0.00000000       2.13187003       1.81643164    
  -1.53403997       1.12949002      -0.00000000       2.13187003       1.81643164    
  -1.69323206      0.872922003      -0.00000000       1.97324407       1.83749616    
  -1.66468298      0.926204979      -0.00000000       1.97324407       1.83749616    
   0.00000000       0.00000000       0.00000000       1.97324407       1.83749616    
  -1.72007501      0.818759024      -0.00000000       1.97324407       1.83749616    
  -1.79011405      0.651548028      -0.00000000       1.86860943       1.85336459    
  -1.76854098      0.708016992      -0.00000000       1.86860943       1.85336459    
   0.00000000       0.00000000       0.00000000       1.86860943       1.85336459    
  -1.80988598      0.594424009      -0.00000000       1.86860943       1.85336459    
   0.00000000       0.00000000       0.00000000       1.91393828       1.84627187    
  -1.76854098      0.708016992      -0.00000000       1.91393828       1.84627187    
  -1.74518704      0.763773024      -0.00000000       1.91393828       1.84627187    
  -1.72007501      0.818759024      -0.00000000       1.91393828       1.84627187    
  -1.82783401      0.536701024      -0.00000000       1.83578765       1.85872984    
  -1.80988598      0.594424009      -0.00000000       1.83578765       1.85872984    
   0.00000000       0.00000000       0.00000000       1.83578765       1.85872984    
  -1.84394205      0.478437006      -0.00000000       1.83578765       1.85872984    
  -1.88107097      0.300992996      -0.00000000       1.79807556       1.86515391    
  -1.87057400      0.360523999      -0.00000000       1.79807556       1.86515391    
   0.00000000       0.00000000       0.00000000       1.79807556       1.86515391    
  -1.88967395      0.241159007      -0.00000000       1.79807556       1.86515391    
   0.00000000       0.00000000       0.00000000       1.81320250       1.86254156    
  -1.87057400      0.360523999      -0.00000000       1.81320250       1.86254156    
  -1.85819399      0.419692010      -0.00000000       1.81320250       1.86254156    
  -1.84394205      0.478437006      -0.00000000       1.81320250       1.86254156    
  -1.89637399      0.181081995      -0.00000000       1.78998470       1.86657524    
  -1.88967395      0.241159007      -0.00000000       1.78998470       1.86657524    
   0.00000000       0.00000000       0.00000000       1.78998470       1.86657524    
  -1.90116501      0.120823003      -0.00000000       1.78998470       1.86657524    
  -1.90404105      -6.04420006E-02  -0.00000000       1.78698683       1.86710906    
  -1.90499997       0.00000000      -0.00000000       1.78698683       1.86710906    
   0.00000000       0.00000000       0.00000000       1.78698683       1.86710906    
  -1.90116501     -0.120823003      -0.00000000       1.78698683       1.86710906    
   0.00000000       0.00000000       0.00000000       1.78672671       1.86715508    
  -1.90499997       0.00000000      -0.00000000       1.78672671       1.86715508    
  -1.90404105       6.04420006E-02  -0.00000000       1.78672671       1.86715508    
  -1.90116501      0.120823003      -0.00000000       1.78672671       1.86715508    
  -1.89637399     -0.181081995      -0.00000000       1.79116809       1.86637115    
  -1.90116501     -0.120823003      -0.00000000       1.79116809       1.86637115    
   0.00000000       0.00000000       0.00000000       1.79116809       1.86637115    
  -1.88967395     -0.241159007      -0.00000000       1.79116809       1.86637115    
  -1.85819399     -0.419692010      -0.00000000       1.81912053       1.86154842    
  -1.87057400     -0.360523999      -0.00000000       1.81912053       1.86154842    
   0.00000000       0.00000000       0.00000000       1.81912053       1.86154842    
  -1.84394205     -0.478437006      -0.00000000       1.81912053       1.86154842    
   0.00000000       0.00000000       0.00000000       1.80171454       1.86453199    
  -1.87057400     -0.360523999      -0.00000000       1.80171454       1.86453199    
  -1.88107097     -0.300992996      -0.00000000       1.80171454       1.86453199    
  -1.88967395     -0.241159007      -0.00000000       1.80171454       1.86453199    
  -1.82783401     -0.536701024      -0.00000000       1.84478712       1.85726202    
  -1.84394205     -0.478437006      -0.00000000       1.84478712       1.85726202    
   0.00000000       0.00000000       0.00000000       1.84478712       1.85726202    
  -1.80988598     -0.594424009      -0.00000000       1.84478712       1.85726202    
  -1.74518704     -0.763773024      -0.00000000       1.93149757       1.84365988    
  -1.76854098     -0.708016992      -0.00000000       1.93149757       1.84365988    
   0.00000000       0.00000000       0.00000000       1.93149757       1.84365988    
  -1.72007501     -0.818759024      -0.00000000       1.93149757       1.84365988    
   0.00000000       0.00000000       0.00000000       1.88197398       1.85126913    
  -1.76854098     -0.708016992      -0.00000000       1.88197398       1.85126913    
  -1.79011405     -0.651548028      -0.00000000       1.88197398       1.85126913    
  -1.80988598     -0.594424009      -0.00000000       1.88197398       1.85126913    
  -1.69323206     -0.872922003      -0.00000000       1.99442577       1.83454549    
  -1.72007501     -0.818759024      -0.00000000       1.99442577       1.83454549    
   0.00000000       0.00000000       0.00000000       1.99442577       1.83454549    
  -1.66468298     -0.926204979      -0.00000000       1.99442577       1.83454549    
  -1.56910396      -1.08024895      -0.00000000       2.15510035       1.81368470    
  -1.60258806      -1.02992105      -0.00000000       2.15510035       1.81368470    
   0.00000000       0.00000000       0.00000000       2.15510035       1.81368470    
  -1.53403997      -1.12949002      -0.00000000       2.15510035       1.81368470    
   0.00000000       0.00000000       0.00000000       2.06983685       1.82435632    
  -1.60258806      -1.02992105      -0.00000000       2.06983685       1.82435632    
  -1.63445795     -0.978555024      -0.00000000       2.06983685       1.82435632    
  -1.66468298     -0.926204979      -0.00000000       2.06983685       1.82435632    
  -1.49743104      -1.17759299      -0.00000000       2.24238300       1.80356336    
  -1.53403997      -1.12949002      -0.00000000       2.24238300       1.80356336    
   0.00000000       0.00000000       0.00000000       2.24238300       1.80356336    
  -1.45931494      -1.22450995      -0.00000000       2.24238300       1.80356336    
  -1.33631003      -1.35768199      -0.00000000       2.35646391       1.79133058    
  -1.37871301      -1.31459999      -0.00000000       2.35646391       1.79133058    
   0.00000000       0.00000000       0.00000000       2.35646391       1.79133058    
  -1.29255998      -1.39939702      -0.00000000       2.35646391       1.79133058    
   0.00000000       0.00000000       0.00000000       2.32053304       1.79508376    
  -1.37871301      -1.31459999      -0.00000000       2.32053304       1.79508376    
  -1.41972899      -1.27019501      -0.00000000       2.32053304       1.79508376    
  -1.45931494      -1.22450995      -0.00000000       2.32053304       1.79508376    
  -1.24750996      -1.43970299      -0.00000000       2.31146479       1.79598939    
  -1.29255998      -1.39939702      -0.00000000       2.31146479       1.79598939    
   0.00000000       0.00000000       0.00000000       2.31146479       1.79598939    
  -1.20120299      -1.47855902      -0.00000000       2.31146479       1.79598939    
  -1.05521798      -1.58604598      -0.00000000       2.13311172       1.81628764    
  -1.10500801      -1.55176699      -0.00000000       2.13311172       1.81628764    
   0.00000000       0.00000000       0.00000000       2.13311172       1.81628764    
  -1.00436401      -1.61872697      -0.00000000       2.13311172       1.81628764    
   0.00000000       0.00000000       0.00000000       2.22514248       1.80543160    
  -1.10500801      -1.55176699      -0.00000000       2.22514248       1.80543160    
  -1.15368605      -1.51592600      -0.00000000       2.22514248       1.80543160    
  -1.20120299      -1.47855902      -0.00000000       2.22514248       1.80543160    
 -0.952499986      -1.64977801      -0.00000000       2.04781961       1.82719696    
  -1.00436401      -1.61872697      -0.00000000       2.04781961       1.82719696    
   0.00000000       0.00000000       0.00000000       2.04781961       1.82719696    
 -0.899676025      -1.67916906      -0.00000000       2.04781961       1.82719696    
 -0.735987008      -1.75708497      -0.00000000       1.91547799       1.84604907    
 -0.791365981      -1.73284900      -0.00000000       1.91547799       1.84604907    
   0.00000000       0.00000000       0.00000000       1.91547799       1.84604907    
 -0.679867983      -1.77955198      -0.00000000       1.91547799       1.84604907    
   0.00000000       0.00000000       0.00000000       1.97470963       1.83729661    
 -0.791365981      -1.73284900      -0.00000000       1.97470963       1.83729661    
 -0.845947027      -1.70686805      -0.00000000       1.97470963       1.83729661    
 -0.899676025      -1.67916906      -0.00000000       1.97470963       1.83729661    
 -0.623063982      -1.80022705      -0.00000000       1.87024105       1.85311687    
 -0.679867983      -1.77955198      -0.00000000       1.87024105       1.85311687    
   0.00000000       0.00000000       0.00000000       1.87024105       1.85311687    
 -0.565632999      -1.81908906      -0.00000000       1.87024105       1.85311687    
 -0.390157014      -1.86461902      -0.00000000       1.81505454       1.86224306    
 -0.449120998      -1.85130095      -0.00000000       1.81505454       1.86224306    
   0.00000000       0.00000000       0.00000000       1.81505454       1.86224306    
 -0.330799997      -1.87605906      -0.00000000       1.81505454       1.86224306    
   0.00000000       0.00000000       0.00000000       1.83757401       1.85844827    
 -0.449120998      -1.85130095      -0.00000000       1.83757401       1.85844827    
 -0.507632971      -1.83611906      -0.00000000       1.83757401       1.85844827    
 -0.565632999      -1.81908906      -0.00000000       1.83757401       1.85844827    
 -0.271109998      -1.88560998      -0.00000000       1.79997814       1.86484241    
 -0.330799997      -1.87605906      -0.00000000       1.79997814       1.86484241    
   0.00000000       0.00000000       0.00000000       1.79997814       1.86484241    
 -0.211146995      -1.89326203      -0.00000000       1.79997814       1.86484241    
  -3.02249994E-02  -1.90476000      -0.00000000       1.78866529       1.86683476    
  -9.06440020E-02  -1.90284204      -0.00000000       1.78866529       1.86683476    
   0.00000000       0.00000000       0.00000000       1.78866529       1.86683476    
   3.02249994E-02  -1.90476000      -0.00000000       1.78866529       1.86683476    
   0.00000000       0.00000000       0.00000000       1.79191375       1.86625791    
  -9.06440020E-02  -1.90284204      -0.00000000       1.79191375       1.86625791    
 -0.150970995      -1.89900804      -0.00000000       1.79191375       1.86625791    
 -0.211146995      -1.89326203      -0.00000000       1.79191375       1.86625791    
   9.06440020E-02  -1.90284204      -0.00000000       1.78894055       1.86678791    
   3.02249994E-02  -1.90476000      -0.00000000       1.78894055       1.86678791    
   0.00000000       0.00000000       0.00000000       1.78894055       1.86678791    
  0.150970995      -1.89900804      -0.00000000       1.78894055       1.86678791    
  0.330799997      -1.87605906      -0.00000000       1.80379999       1.86419559    
  0.271109998      -1.88560998      -0.00000000       1.80379999       1.86419559    
   0.00000000       0.00000000       0.00000000       1.80379999       1.86419559    
  0.390157014      -1.86461902      -0.00000000       1.80379999       1.86419559    
   0.00000000       0.00000000       0.00000000       1.79317141       1.86604428    
  0.271109998      -1.88560998      -0.00000000       1.79317141       1.86604428    
  0.211146995      -1.89326203      -0.00000000       1.79317141       1.86604428    
  0.150970995      -1.89900804      -0.00000000       1.79317141       1.86604428    
  0.449120998      -1.85130095      -0.00000000       1.82130849       1.86120248    
  0.390157014      -1.86461902      -0.00000000       1.82130849       1.86120248    
   0.00000000       0.00000000       0.00000000       1.82130849       1.86120248    
  0.507632971      -1.83611906      -0.00000000       1.82130849       1.86120248    
  0.679867983      -1.77955198      -0.00000000       1.88441920       1.85090506    
  0.623063982      -1.80022705      -0.00000000       1.88441920       1.85090506    
   0.00000000       0.00000000       0.00000000       1.88441920       1.85090506    
  0.735987008      -1.75708497      -0.00000000       1.88441920       1.85090506    
   0.00000000       0.00000000       0.00000000       1.84710777       1.85690367    
  0.623063982      -1.80022705      -0.00000000       1.84710777       1.85690367    
  0.565632999      -1.81908906      -0.00000000       1.84710777       1.85690367    
  0.507632971      -1.83611906      -0.00000000       1.84710777       1.85690367    
  0.791365981      -1.73284900      -0.00000000       1.93402517       1.84330225    
  0.735987008      -1.75708497      -0.00000000       1.93402517       1.84330225    
   0.00000000       0.00000000       0.00000000       1.93402517       1.84330225    
  0.845947027      -1.70686805      -0.00000000       1.93402517       1.84330225    
   1.00436401      -1.61872697      -0.00000000       2.07256031       1.82401872    
  0.952499986      -1.64977801      -0.00000000       2.07256031       1.82401872    
   0.00000000       0.00000000       0.00000000       2.07256031       1.82401872    
   1.05521798      -1.58604598      -0.00000000       2.07256031       1.82401872    
   0.00000000       0.00000000       0.00000000       1.99703848       1.83419883    
  0.952499986      -1.64977801      -0.00000000       1.99703848       1.83419883    
  0.899676025      -1.67916906      -0.00000000       1.99703848       1.83419883    
  0.845947027      -1.70686805      -0.00000000       1.99703848       1.83419883    
   1.10500801      -1.55176699      -0.00000000       2.15819120       1.81332839    
   1.05521798      -1.58604598      -0.00000000       2.15819120       1.81332839    
   0.00000000       0.00000000       0.00000000       2.15819120       1.81332839    
   1.15368605      -1.51592600      -0.00000000       2.15819120       1.81332839    
   1.29255998      -1.39939702      -0.00000000       2.32420850       1.79471374    
   1.24750996      -1.43970299      -0.00000000       2.32420850       1.79471374    
   0.00000000       0.00000000       0.00000000       2.32420850       1.79471374    
   1.33631003      -1.35768199      -0.00000000       2.32420850       1.79471374    
   0.00000000       0.00000000       0.00000000       2.24578953       1.80319893    
   1.24750996      -1.43970299      -0.00000000       2.24578953       1.80319893    
   1.20120299      -1.47855902      -0.00000000       2.24578953       1.80319893    