 VARIABLES="X" "Y" "Z" "abs(p) (Pa)" "angle(p) (rad)"
ZONE N=    802,E =     800, F=FEPOINT, ET=QUADRILATERAL
   1.90499997       0.00000000      -0.00000000       377.732422      -1.21752250    
   1.90404105      -6.04420006E-02  -0.00000000       377.732422      -1.21752250    
   0.00000000       0.00000000       0.00000000       377.732422      -1.21752250    
   1.90404105       6.04420006E-02  -0.00000000       377.732422      -1.21752250    
   1.88967395      0.241159007      -0.00000000       376.962006      -1.21719229    
   1.89637399      0.181081995      -0.00000000       376.962006      -1.21719229    
   0.00000000       0.00000000       0.00000000       376.962006      -1.21719229    
   1.88107097      0.300992996      -0.00000000       376.962006      -1.21719229    
   0.00000000       0.00000000       0.00000000       377.510864      -1.21742177    
   1.89637399      0.181081995      -0.00000000       377.510864      -1.21742177    
   1.90116501      0.120823003      -0.00000000       377.510864      -1.21742177    
   1.90404105       6.04420006E-02  -0.00000000       377.510864      -1.21742177    
   1.87057400      0.360523999      -0.00000000       376.351349      -1.21691573    
   1.88107097      0.300992996      -0.00000000       376.351349      -1.21691573    
   0.00000000       0.00000000       0.00000000       376.351349      -1.21691573    
   1.85819399      0.419692010      -0.00000000       376.351349      -1.21691573    
   1.80988598      0.594424009      -0.00000000       376.342499      -1.21665311    
   1.82783401      0.536701024      -0.00000000       376.342499      -1.21665311    
   0.00000000       0.00000000       0.00000000       376.342499      -1.21665311    
   1.79011405      0.651548028      -0.00000000       376.342499      -1.21665311    
   0.00000000       0.00000000       0.00000000       375.940704      -1.21667206    
   1.82783401      0.536701024      -0.00000000       375.940704      -1.21667206    
   1.84394205      0.478437006      -0.00000000       375.940704      -1.21667206    
   1.85819399      0.419692010      -0.00000000       375.940704      -1.21667206    
   1.76854098      0.708016992      -0.00000000       377.757080      -1.21688604    
   1.79011405      0.651548028      -0.00000000       377.757080      -1.21688604    
   0.00000000       0.00000000       0.00000000       377.757080      -1.21688604    
   1.74518704      0.763773024      -0.00000000       377.757080      -1.21688604    
   1.66468298      0.926204979      -0.00000000       384.708954      -1.21826732    
   1.69323206      0.872922003      -0.00000000       384.708954      -1.21826732    
   0.00000000       0.00000000       0.00000000       384.708954      -1.21826732    
   1.63445795      0.978555024      -0.00000000       384.708954      -1.21826732    
   0.00000000       0.00000000       0.00000000       380.528015      -1.21743989    
   1.69323206      0.872922003      -0.00000000       380.528015      -1.21743989    
   1.72007501      0.818759024      -0.00000000       380.528015      -1.21743989    
   1.74518704      0.763773024      -0.00000000       380.528015      -1.21743989    
   1.60258806       1.02992105      -0.00000000       390.060974      -1.21919072    
   1.63445795      0.978555024      -0.00000000       390.060974      -1.21919072    
   0.00000000       0.00000000       0.00000000       390.060974      -1.21919072    
   1.56910396       1.08024895      -0.00000000       390.060974      -1.21919072    
   1.45931494       1.22450995      -0.00000000       398.424744      -1.21893692    
   1.49743104       1.17759299      -0.00000000       398.424744      -1.21893692    
   0.00000000       0.00000000       0.00000000       398.424744      -1.21893692    
   1.41972899       1.27019501      -0.00000000       398.424744      -1.21893692    
   0.00000000       0.00000000       0.00000000       395.297363      -1.21964002    
   1.49743104       1.17759299      -0.00000000       395.297363      -1.21964002    
   1.53403997       1.12949002      -0.00000000       395.297363      -1.21964002    
   1.56910396       1.08024895      -0.00000000       395.297363      -1.21964002    
   1.37871301       1.31459999      -0.00000000       391.705719      -1.21436465    
   1.41972899       1.27019501      -0.00000000       391.705719      -1.21436465    
   0.00000000       0.00000000       0.00000000       391.705719      -1.21436465    
   1.33631003       1.35768199      -0.00000000       391.705719      -1.21436465    
   1.20120299       1.47855902      -0.00000000       329.151764      -1.18044567    
   1.24750996       1.43970299      -0.00000000       329.151764      -1.18044567    
   0.00000000       0.00000000       0.00000000       329.151764      -1.18044567    
   1.15368605       1.51592600      -0.00000000       329.151764      -1.18044567    
   0.00000000       0.00000000       0.00000000       365.366455      -1.20134246    
   1.24750996       1.43970299      -0.00000000       365.366455      -1.20134246    
   1.29255998       1.39939702      -0.00000000       365.366455      -1.20134246    
   1.33631003       1.35768199      -0.00000000       365.366455      -1.20134246    
   1.10500801       1.55176699      -0.00000000       291.693939      -1.15237224    
   1.15368605       1.51592600      -0.00000000       291.693939      -1.15237224    
   0.00000000       0.00000000       0.00000000       291.693939      -1.15237224    
   1.05521798       1.58604598      -0.00000000       291.693939      -1.15237224    
  0.899676025       1.67916906      -0.00000000       221.662674      -1.06761730    
  0.952499986       1.64977801      -0.00000000       221.662674      -1.06761730    
   0.00000000       0.00000000       0.00000000       221.662674      -1.06761730    
  0.845947027       1.70686805      -0.00000000       221.662674      -1.06761730    
   0.00000000       0.00000000       0.00000000       255.530167      -1.11567569    
  0.952499986       1.64977801      -0.00000000       255.530167      -1.11567569    
   1.00436401       1.61872697      -0.00000000       255.530167      -1.11567569    
   1.05521798       1.58604598      -0.00000000       255.530167      -1.11567569    
  0.791365981       1.73284900      -0.00000000       190.401947      -1.00380945    
  0.845947027       1.70686805      -0.00000000       190.401947      -1.00380945    
   0.00000000       0.00000000       0.00000000       190.401947      -1.00380945    
  0.735987008       1.75708497      -0.00000000       190.401947      -1.00380945    
  0.565632999       1.81908906      -0.00000000       136.988998     -0.800490499    
  0.623063982       1.80022705      -0.00000000       136.988998     -0.800490499    
   0.00000000       0.00000000       0.00000000       136.988998     -0.800490499    
  0.507632971       1.83611906      -0.00000000       136.988998     -0.800490499    
   0.00000000       0.00000000       0.00000000       162.088745     -0.918043494    
  0.623063982       1.80022705      -0.00000000       162.088745     -0.918043494    
  0.679867983       1.77955198      -0.00000000       162.088745     -0.918043494    
  0.735987008       1.75708497      -0.00000000       162.088745     -0.918043494    
  0.449120998       1.85130095      -0.00000000       115.751831     -0.637504339    
  0.507632971       1.83611906      -0.00000000       115.751831     -0.637504339    
   0.00000000       0.00000000       0.00000000       115.751831     -0.637504339    
  0.390157014       1.86461902      -0.00000000       115.751831     -0.637504339    
  0.211146995       1.89326203      -0.00000000       90.7174911     -0.127593160    
  0.271109998       1.88560998      -0.00000000       90.7174911     -0.127593160    
   0.00000000       0.00000000       0.00000000       90.7174911     -0.127593160    
  0.150970995       1.89900804      -0.00000000       90.7174911     -0.127593160    
   0.00000000       0.00000000       0.00000000       99.6059113     -0.413326561    
  0.271109998       1.88560998      -0.00000000       99.6059113     -0.413326561    
  0.330799997       1.87605906      -0.00000000       99.6059113     -0.413326561    
  0.390157014       1.86461902      -0.00000000       99.6059113     -0.413326561    
   9.06440020E-02   1.90284204      -0.00000000       90.7798004      0.184483767    
  0.150970995       1.89900804      -0.00000000       90.7798004      0.184483767    
   0.00000000       0.00000000       0.00000000       90.7798004      0.184483767    
   3.02249994E-02   1.90476000      -0.00000000       90.7798004      0.184483767    
 -0.150970995       1.89900804      -0.00000000       115.193062      0.686255336    
  -9.06440020E-02   1.90284204      -0.00000000       115.193062      0.686255336    
   0.00000000       0.00000000       0.00000000       115.193062      0.686255336    
 -0.211146995       1.89326203      -0.00000000       115.193062      0.686255336    
   0.00000000       0.00000000       0.00000000       99.5819550      0.466374576    
  -9.06440020E-02   1.90284204      -0.00000000       99.5819550      0.466374576    
  -3.02249994E-02   1.90476000      -0.00000000       99.5819550      0.466374576    
   3.02249994E-02   1.90476000      -0.00000000       99.5819550      0.466374576    
 -0.271109998       1.88560998      -0.00000000       135.501770      0.846035659    
 -0.211146995       1.89326203      -0.00000000       135.501770      0.846035659    
   0.00000000       0.00000000       0.00000000       135.501770      0.846035659    
 -0.330799997       1.87605906      -0.00000000       135.501770      0.846035659    
 -0.507632971       1.83611906      -0.00000000       184.848297       1.04346859    
 -0.449120998       1.85130095      -0.00000000       184.848297       1.04346859    
   0.00000000       0.00000000       0.00000000       184.848297       1.04346859    
 -0.565632999       1.81908906      -0.00000000       184.848297       1.04346859    
   0.00000000       0.00000000       0.00000000       158.977020      0.960455954    
 -0.449120998       1.85130095      -0.00000000       158.977020      0.960455954    
 -0.390157014       1.86461902      -0.00000000       158.977020      0.960455954    
 -0.330799997       1.87605906      -0.00000000       158.977020      0.960455954    
 -0.623063982       1.80022705      -0.00000000       213.061630       1.10510862    
 -0.565632999       1.81908906      -0.00000000       213.061630       1.10510862    
   0.00000000       0.00000000       0.00000000       213.061630       1.10510862    
 -0.679867983       1.77955198      -0.00000000       213.061630       1.10510862    
 -0.845947027       1.70686805      -0.00000000       275.813202       1.18662488    
 -0.791365981       1.73284900      -0.00000000       275.813202       1.18662488    
   0.00000000       0.00000000       0.00000000       275.813202       1.18662488    
 -0.899676025       1.67916906      -0.00000000       275.813202       1.18662488    
   0.00000000       0.00000000       0.00000000       243.374100       1.15139961    
 -0.791365981       1.73284900      -0.00000000       243.374100       1.15139961    
 -0.735987008       1.75708497      -0.00000000       243.374100       1.15139961    
 -0.679867983       1.77955198      -0.00000000       243.374100       1.15139961    
 -0.952499986       1.64977801      -0.00000000       310.211456       1.21360397    
 -0.899676025       1.67916906      -0.00000000       310.211456       1.21360397    
   0.00000000       0.00000000       0.00000000       310.211456       1.21360397    
  -1.00436401       1.61872697      -0.00000000       310.211456       1.21360397    
  -1.15368605       1.51592600      -0.00000000       382.662689       1.25033319    
  -1.10500801       1.55176699      -0.00000000       382.662689       1.25033319    
   0.00000000       0.00000000       0.00000000       382.662689       1.25033319    
  -1.20120299       1.47855902      -0.00000000       382.662689       1.25033319    
   0.00000000       0.00000000       0.00000000       346.237091       1.23440826    
  -1.10500801       1.55176699      -0.00000000       346.237091       1.23440826    
  -1.05521798       1.58604598      -0.00000000       346.237091       1.23440826    
  -1.00436401       1.61872697      -0.00000000       346.237091       1.23440826    
  -1.24750996       1.43970299      -0.00000000       417.359375       1.26231039    
  -1.20120299       1.47855902      -0.00000000       417.359375       1.26231039    
   0.00000000       0.00000000       0.00000000       417.359375       1.26231039    
  -1.29255998       1.39939702      -0.00000000       417.359375       1.26231039    
  -1.41972899       1.27019501      -0.00000000       448.935303       1.27495766    
  -1.37871301       1.31459999      -0.00000000       448.935303       1.27495766    
   0.00000000       0.00000000       0.00000000       448.935303       1.27495766    
  -1.45931494       1.22450995      -0.00000000       448.935303       1.27495766    
   0.00000000       0.00000000       0.00000000       442.642242       1.27047408    
  -1.37871301       1.31459999      -0.00000000       442.642242       1.27047408    
  -1.33631003       1.35768199      -0.00000000       442.642242       1.27047408    
  -1.29255998       1.39939702      -0.00000000       442.642242       1.27047408    
  -1.49743104       1.17759299      -0.00000000       445.468964       1.27760661    
  -1.45931494       1.22450995      -0.00000000       445.468964       1.27760661    
   0.00000000       0.00000000       0.00000000       445.468964       1.27760661    
  -1.53403997       1.12949002      -0.00000000       445.468964       1.27760661    
  -1.63445795      0.978555024      -0.00000000       435.653778       1.28098786    
  -1.60258806       1.02992105      -0.00000000       435.653778       1.28098786    
   0.00000000       0.00000000       0.00000000       435.653778       1.28098786    
  -1.66468298      0.926204979      -0.00000000       435.653778       1.28098786    
   0.00000000       0.00000000       0.00000000       440.297058       1.27949870    
  -1.60258806       1.02992105      -0.00000000       440.297058       1.27949870    
  -1.56910396       1.08024895      -0.00000000       440.297058       1.27949870    
  -1.53403997       1.12949002      -0.00000000       440.297058       1.27949870    
  -1.69323206      0.872922003      -0.00000000       432.438080       1.28226388    
  -1.66468298      0.926204979      -0.00000000       432.438080       1.28226388    
   0.00000000       0.00000000       0.00000000       432.438080       1.28226388    
  -1.72007501      0.818759024      -0.00000000       432.438080       1.28226388    
  -1.79011405      0.651548028      -0.00000000       430.338562       1.28439653    
  -1.76854098      0.708016992      -0.00000000       430.338562       1.28439653    
   0.00000000       0.00000000       0.00000000       430.338562       1.28439653    
  -1.80988598      0.594424009      -0.00000000       430.338562       1.28439653    
   0.00000000       0.00000000       0.00000000       430.713287       1.28339314    
  -1.76854098      0.708016992      -0.00000000       430.713287       1.28339314    
  -1.74518704      0.763773024      -0.00000000       430.713287       1.28339314    
  -1.72007501      0.818759024      -0.00000000       430.713287       1.28339314    
  -1.82783401      0.536701024      -0.00000000       430.961609       1.28527713    
  -1.80988598      0.594424009      -0.00000000       430.961609       1.28527713    
   0.00000000       0.00000000       0.00000000       430.961609       1.28527713    
  -1.84394205      0.478437006      -0.00000000       430.961609       1.28527713    
  -1.88107097      0.300992996      -0.00000000       433.334991       1.28656971    
  -1.87057400      0.360523999      -0.00000000       433.334991       1.28656971    
   0.00000000       0.00000000       0.00000000       433.334991       1.28656971    
  -1.88967395      0.241159007      -0.00000000       433.334991       1.28656971    
   0.00000000       0.00000000       0.00000000       432.133911       1.28601015    
  -1.87057400      0.360523999      -0.00000000       432.133911       1.28601015    
  -1.85819399      0.419692010      -0.00000000       432.133911       1.28601015    
  -1.84394205      0.478437006      -0.00000000       432.133911       1.28601015    
  -1.89637399      0.181081995      -0.00000000       434.434052       1.28696215    
  -1.88967395      0.241159007      -0.00000000       434.434052       1.28696215    
   0.00000000       0.00000000       0.00000000       434.434052       1.28696215    
  -1.90116501      0.120823003      -0.00000000       434.434052       1.28696215    
  -1.90404105      -6.04420006E-02  -0.00000000       435.149872       1.28715026    
  -1.90499997       0.00000000      -0.00000000       435.149872       1.28715026    
   0.00000000       0.00000000       0.00000000       435.149872       1.28715026    
  -1.90116501     -0.120823003      -0.00000000       435.149872       1.28715026    
   0.00000000       0.00000000       0.00000000       435.117554       1.28716302    
  -1.90499997       0.00000000      -0.00000000       435.117554       1.28716302    
  -1.90404105       6.04420006E-02  -0.00000000       435.117554       1.28716302    
  -1.90116501      0.120823003      -0.00000000       435.117554       1.28716302    
  -1.89637399     -0.181081995      -0.00000000       434.588806       1.28693378    
  -1.90116501     -0.120823003      -0.00000000       434.588806       1.28693378    
   0.00000000       0.00000000       0.00000000       434.588806       1.28693378    
  -1.88967395     -0.241159007      -0.00000000       434.588806       1.28693378    
  -1.85819399     -0.419692010      -0.00000000       432.947235       1.28600633    
  -1.87057400     -0.360523999      -0.00000000       432.947235       1.28600633    
   0.00000000       0.00000000       0.00000000       432.947235       1.28600633    
  -1.84394205     -0.478437006      -0.00000000       432.947235       1.28600633    
   0.00000000       0.00000000       0.00000000       433.818054       1.28655291    
  -1.87057400     -0.360523999      -0.00000000       433.818054       1.28655291    
  -1.88107097     -0.300992996      -0.00000000       433.818054       1.28655291    
  -1.88967395     -0.241159007      -0.00000000       433.818054       1.28655291    
  -1.82783401     -0.536701024      -0.00000000       432.218597       1.28530407    
  -1.84394205     -0.478437006      -0.00000000       432.218597       1.28530407    
   0.00000000       0.00000000       0.00000000       432.218597       1.28530407    
  -1.80988598     -0.594424009      -0.00000000       432.218597       1.28530407    
  -1.74518704     -0.763773024      -0.00000000       433.206299       1.28352499    
  -1.76854098     -0.708016992      -0.00000000       433.206299       1.28352499    
   0.00000000       0.00000000       0.00000000       433.206299       1.28352499    
  -1.72007501     -0.818759024      -0.00000000       433.206299       1.28352499    
   0.00000000       0.00000000       0.00000000       432.240051       1.28447843    
  -1.76854098     -0.708016992      -0.00000000       432.240051       1.28447843    
  -1.79011405     -0.651548028      -0.00000000       432.240051       1.28447843    
  -1.80988598     -0.594424009      -0.00000000       432.240051       1.28447843    
  -1.69323206     -0.872922003      -0.00000000       435.451904       1.28244293    
  -1.72007501     -0.818759024      -0.00000000       435.451904       1.28244293    
   0.00000000       0.00000000       0.00000000       435.451904       1.28244293    
  -1.66468298     -0.926204979      -0.00000000       435.451904       1.28244293    
  -1.56910396      -1.08024895      -0.00000000       443.618378       1.27966189    
  -1.60258806      -1.02992105      -0.00000000       443.618378       1.27966189    
   0.00000000       0.00000000       0.00000000       443.618378       1.27966189    
  -1.53403997      -1.12949002      -0.00000000       443.618378       1.27966189    
   0.00000000       0.00000000       0.00000000       439.022430       1.28119016    
  -1.60258806      -1.02992105      -0.00000000       439.022430       1.28119016    
  -1.63445795     -0.978555024      -0.00000000       439.022430       1.28119016    
  -1.66468298     -0.926204979      -0.00000000       439.022430       1.28119016    
  -1.49743104      -1.17759299      -0.00000000       448.009857       1.27759600    
  -1.53403997      -1.12949002      -0.00000000       448.009857       1.27759600    
   0.00000000       0.00000000       0.00000000       448.009857       1.27759600    
  -1.45931494      -1.22450995      -0.00000000       448.009857       1.27759600    
  -1.33631003      -1.35768199      -0.00000000       442.838318       1.27001345    
  -1.37871301      -1.31459999      -0.00000000       442.838318       1.27001345    
   0.00000000       0.00000000       0.00000000       442.838318       1.27001345    
  -1.29255998      -1.39939702      -0.00000000       442.838318       1.27001345    
   0.00000000       0.00000000       0.00000000       450.275940       1.27473378    
  -1.37871301      -1.31459999      -0.00000000       450.275940       1.27473378    
  -1.41972899      -1.27019501      -0.00000000       450.275940       1.27473378    
  -1.45931494      -1.22450995      -0.00000000       450.275940       1.27473378    
  -1.24750996      -1.43970299      -0.00000000       416.324036       1.26150966    
  -1.29255998      -1.39939702      -0.00000000       416.324036       1.26150966    
   0.00000000       0.00000000       0.00000000       416.324036       1.26150966    
  -1.20120299      -1.47855902      -0.00000000       416.324036       1.26150966    
  -1.05521798      -1.58604598      -0.00000000       342.863525       1.23245549    
  -1.10500801      -1.55176699      -0.00000000       342.863525       1.23245549    
   0.00000000       0.00000000       0.00000000       342.863525       1.23245549    
  -1.00436401      -1.61872697      -0.00000000       342.863525       1.23245549    
   0.00000000       0.00000000       0.00000000       380.247833       1.24901879    
  -1.10500801      -1.55176699      -0.00000000       380.247833       1.24901879    
  -1.15368605      -1.51592600      -0.00000000       380.247833       1.24901879    
  -1.20120299      -1.47855902      -0.00000000       380.247833       1.24901879    
 -0.952499986      -1.64977801      -0.00000000       306.521851       1.21095312    
  -1.00436401      -1.61872697      -0.00000000       306.521851       1.21095312    
   0.00000000       0.00000000       0.00000000       306.521851       1.21095312    
 -0.899676025      -1.67916906      -0.00000000       306.521851       1.21095312    
 -0.735987008      -1.75708497      -0.00000000       239.882141       1.14676142    
 -0.791365981      -1.73284900      -0.00000000       239.882141       1.14676142    
   0.00000000       0.00000000       0.00000000       239.882141       1.14676142    
 -0.679867983      -1.77955198      -0.00000000       239.882141       1.14676142    
   0.00000000       0.00000000       0.00000000       272.126740       1.18308091    
 -0.791365981      -1.73284900      -0.00000000       272.126740       1.18308091    
 -0.845947027      -1.70686805      -0.00000000       272.126740       1.18308091    
 -0.899676025      -1.67916906      -0.00000000       272.126740       1.18308091    
 -0.623063982      -1.80022705      -0.00000000       209.932755       1.09921980    
 -0.679867983      -1.77955198      -0.00000000       209.932755       1.09921980    
   0.00000000       0.00000000       0.00000000       209.932755       1.09921980    
 -0.565632999      -1.81908906      -0.00000000       209.932755       1.09921980    
 -0.390157014      -1.86461902      -0.00000000       156.656921      0.950873554    
 -0.449120998      -1.85130095      -0.00000000       156.656921      0.950873554    
   0.00000000       0.00000000       0.00000000       156.656921      0.950873554    
 -0.330799997      -1.87605906      -0.00000000       156.656921      0.950873554    
   0.00000000       0.00000000       0.00000000       182.190704       1.03611839    
 -0.449120998      -1.85130095      -0.00000000       182.190704       1.03611839    
 -0.507632971      -1.83611906      -0.00000000       182.190704       1.03611839    
 -0.565632999      -1.81908906      -0.00000000       182.190704       1.03611839    
 -0.271109998      -1.88560998      -0.00000000       133.470505      0.832959592    
 -0.330799997      -1.87605906      -0.00000000       133.470505      0.832959592    
   0.00000000       0.00000000       0.00000000       133.470505      0.832959592    
 -0.211146995      -1.89326203      -0.00000000       133.470505      0.832959592    
  -3.02249994E-02  -1.90476000      -0.00000000       98.4902878      0.443263531    
  -9.06440020E-02  -1.90284204      -0.00000000       98.4902878      0.443263531    
   0.00000000       0.00000000       0.00000000       98.4902878      0.443263531    
   3.02249994E-02  -1.90476000      -0.00000000       98.4902878      0.443263531    
   0.00000000       0.00000000       0.00000000       113.572838      0.668491364    
  -9.06440020E-02  -1.90284204      -0.00000000       113.572838      0.668491364    
 -0.150970995      -1.89900804      -0.00000000       113.572838      0.668491364    
 -0.211146995      -1.89326203      -0.00000000       113.572838      0.668491364    
   9.06440020E-02  -1.90284204      -0.00000000       90.3739700      0.156708509    
   3.02249994E-02  -1.90476000      -0.00000000       90.3739700      0.156708509    
   0.00000000       0.00000000       0.00000000       90.3739700      0.156708509    
  0.150970995      -1.89900804      -0.00000000       90.3739700      0.156708509    
  0.330799997      -1.87605906      -0.00000000       100.835526     -0.437951475    
  0.271109998      -1.88560998      -0.00000000       100.835526     -0.437951475    
   0.00000000       0.00000000       0.00000000       100.835526     -0.437951475    
  0.390157014      -1.86461902      -0.00000000       100.835526     -0.437951475    
   0.00000000       0.00000000       0.00000000       91.1319656     -0.156249359    
  0.271109998      -1.88560998      -0.00000000       91.1319656     -0.156249359    
  0.211146995      -1.89326203      -0.00000000       91.1319656     -0.156249359    
  0.150970995      -1.89900804      -0.00000000       91.1319656     -0.156249359    
  0.449120998      -1.85130095      -0.00000000       117.606415     -0.656296968    
  0.390157014      -1.86461902      -0.00000000       117.606415     -0.656296968    
   0.00000000       0.00000000       0.00000000       117.606415     -0.656296968    
  0.507632971      -1.83611906      -0.00000000       117.606415     -0.656296968    
  0.679867983      -1.77955198      -0.00000000       165.115204     -0.929272234    
  0.623063982      -1.80022705      -0.00000000       165.115204     -0.929272234    
   0.00000000       0.00000000       0.00000000       165.115204     -0.929272234    
  0.735987008      -1.75708497      -0.00000000       165.115204     -0.929272234    
   0.00000000       0.00000000       0.00000000       139.399323     -0.814794779    
  0.623063982      -1.80022705      -0.00000000       139.399323     -0.814794779    
  0.565632999      -1.81908906      -0.00000000       139.399323     -0.814794779    
  0.507632971      -1.83611906      -0.00000000       139.399323     -0.814794779    
  0.791365981      -1.73284900      -0.00000000       193.911346      -1.01247871    
  0.735987008      -1.75708497      -0.00000000       193.911346      -1.01247871    
   0.00000000       0.00000000       0.00000000       193.911346      -1.01247871    
  0.845947027      -1.70686805      -0.00000000       193.911346      -1.01247871    
   1.00436401      -1.61872697      -0.00000000       259.416351      -1.12047517    
  0.952499986      -1.64977801      -0.00000000       259.416351      -1.12047517    
   0.00000000       0.00000000       0.00000000       259.416351      -1.12047517    
   1.05521798      -1.58604598      -0.00000000       259.416351      -1.12047517    
   0.00000000       0.00000000       0.00000000       225.464828      -1.07412791    
  0.952499986      -1.64977801      -0.00000000       225.464828      -1.07412791    
  0.899676025      -1.67916906      -0.00000000       225.464828      -1.07412791    
  0.845947027      -1.70686805      -0.00000000       225.464828      -1.07412791    
   1.10500801      -1.55176699      -0.00000000       295.341156      -1.15582323    
   1.05521798      -1.58604598      -0.00000000       295.341156      -1.15582323    
   0.00000000       0.00000000       0.00000000       295.341156      -1.15582323    
   1.15368605      -1.51592600      -0.00000000       295.341156      -1.15582323    
   1.29255998      -1.39939702      -0.00000000       366.653381      -1.20251536    
   1.24750996      -1.43970299      -0.00000000       366.653381      -1.20251536    
   0.00000000       0.00000000       0.00000000       366.653381      -1.20251536    
   1.33631003      -1.35768199      -0.00000000       366.653381      -1.20251536    
   0.00000000       0.00000000       0.00000000       331.829346      -1.18261850    
   1.24750996      -1.43970299      -0.00000000       331.829346      -1.18261850    
   1.20120299      -1.47855902      -0.00000000       331.829346      -1.18261850    