 VARIABLES="X" "Y" "Z" "abs(p) (Pa)" "angle(p) (rad)"
ZONE N=    802,E =     800, F=FEPOINT, ET=QUADRILATERAL
   1.90499997       0.00000000      -0.00000000       63.7336006       2.04003453    
   1.90404105      -6.04420006E-02  -0.00000000       63.7336006       2.04003453    
   0.00000000       0.00000000       0.00000000       63.7336006       2.04003453    
   1.90404105       6.04420006E-02  -0.00000000       63.7336006       2.04003453    
   1.88967395      0.241159007      -0.00000000       63.6842880       2.04027867    
   1.89637399      0.181081995      -0.00000000       63.6842880       2.04027867    
   0.00000000       0.00000000       0.00000000       63.6842880       2.04027867    
   1.88107097      0.300992996      -0.00000000       63.6842880       2.04027867    
   0.00000000       0.00000000       0.00000000       63.7199097       2.04010296    
   1.89637399      0.181081995      -0.00000000       63.7199097       2.04010296    
   1.90116501      0.120823003      -0.00000000       63.7199097       2.04010296    
   1.90404105       6.04420006E-02  -0.00000000       63.7199097       2.04010296    
   1.87057400      0.360523999      -0.00000000       63.6210213       2.04059196    
   1.88107097      0.300992996      -0.00000000       63.6210213       2.04059196    
   0.00000000       0.00000000       0.00000000       63.6210213       2.04059196    
   1.85819399      0.419692010      -0.00000000       63.6210213       2.04059196    
   1.80988598      0.594424009      -0.00000000       63.3669128       2.04186440    
   1.82783401      0.536701024      -0.00000000       63.3669128       2.04186440    
   0.00000000       0.00000000       0.00000000       63.3669128       2.04186440    
   1.79011405      0.651548028      -0.00000000       63.3669128       2.04186440    
   0.00000000       0.00000000       0.00000000       63.5174141       2.04111004    
   1.82783401      0.536701024      -0.00000000       63.5174141       2.04111004    
   1.84394205      0.478437006      -0.00000000       63.5174141       2.04111004    
   1.85819399      0.419692010      -0.00000000       63.5174141       2.04111004    
   1.76854098      0.708016992      -0.00000000       63.1578560       2.04291034    
   1.79011405      0.651548028      -0.00000000       63.1578560       2.04291034    
   0.00000000       0.00000000       0.00000000       63.1578560       2.04291034    
   1.74518704      0.763773024      -0.00000000       63.1578560       2.04291034    
   1.66468298      0.926204979      -0.00000000       62.5385361       2.04596663    
   1.69323206      0.872922003      -0.00000000       62.5385361       2.04596663    
   0.00000000       0.00000000       0.00000000       62.5385361       2.04596663    
   1.63445795      0.978555024      -0.00000000       62.5385361       2.04596663    
   0.00000000       0.00000000       0.00000000       62.8819656       2.04428291    
   1.69323206      0.872922003      -0.00000000       62.8819656       2.04428291    
   1.72007501      0.818759024      -0.00000000       62.8819656       2.04428291    
   1.74518704      0.763773024      -0.00000000       62.8819656       2.04428291    
   1.60258806       1.02992105      -0.00000000       62.1326523       2.04791069    
   1.63445795      0.978555024      -0.00000000       62.1326523       2.04791069    
   0.00000000       0.00000000       0.00000000       62.1326523       2.04791069    
   1.56910396       1.08024895      -0.00000000       62.1326523       2.04791069    
   1.45931494       1.22450995      -0.00000000       61.2343826       2.05198050    
   1.49743104       1.17759299      -0.00000000       61.2343826       2.05198050    
   0.00000000       0.00000000       0.00000000       61.2343826       2.05198050    
   1.41972899       1.27019501      -0.00000000       61.2343826       2.05198050    
   0.00000000       0.00000000       0.00000000       61.6814156       2.05000186    
   1.49743104       1.17759299      -0.00000000       61.6814156       2.05000186    
   1.53403997       1.12949002      -0.00000000       61.6814156       2.05000186    
   1.56910396       1.08024895      -0.00000000       61.6814156       2.05000186    
   1.37871301       1.31459999      -0.00000000       61.0011292       2.05295372    
   1.41972899       1.27019501      -0.00000000       61.0011292       2.05295372    
   0.00000000       0.00000000       0.00000000       61.0011292       2.05295372    
   1.33631003       1.35768199      -0.00000000       61.0011292       2.05295372    
   1.20120299       1.47855902      -0.00000000       61.7366943       2.04965115    
   1.24750996       1.43970299      -0.00000000       61.7366943       2.04965115    
   0.00000000       0.00000000       0.00000000       61.7366943       2.04965115    
   1.15368605       1.51592600      -0.00000000       61.7366943       2.04965115    
   0.00000000       0.00000000       0.00000000       61.2569847       2.05181503    
   1.24750996       1.43970299      -0.00000000       61.2569847       2.05181503    
   1.29255998       1.39939702      -0.00000000       61.2569847       2.05181503    
   1.33631003       1.35768199      -0.00000000       61.2569847       2.05181503    
   1.10500801       1.55176699      -0.00000000       62.2136879       2.04742455    
   1.15368605       1.51592600      -0.00000000       62.2136879       2.04742455    
   0.00000000       0.00000000       0.00000000       62.2136879       2.04742455    
   1.05521798       1.58604598      -0.00000000       62.2136879       2.04742455    
  0.899676025       1.67916906      -0.00000000       62.9850769       2.04370308    
  0.952499986       1.64977801      -0.00000000       62.9850769       2.04370308    
   0.00000000       0.00000000       0.00000000       62.9850769       2.04370308    
  0.845947027       1.70686805      -0.00000000       62.9850769       2.04370308    
   0.00000000       0.00000000       0.00000000       62.6347618       2.04540992    
  0.952499986       1.64977801      -0.00000000       62.6347618       2.04540992    
   1.00436401       1.61872697      -0.00000000       62.6347618       2.04540992    
   1.05521798       1.58604598      -0.00000000       62.6347618       2.04540992    
  0.791365981       1.73284900      -0.00000000       63.2602882       2.04234934    
  0.845947027       1.70686805      -0.00000000       63.2602882       2.04234934    
   0.00000000       0.00000000       0.00000000       63.2602882       2.04234934    
  0.735987008       1.75708497      -0.00000000       63.2602882       2.04234934    
  0.565632999       1.81908906      -0.00000000       63.6217575       2.04055905    
  0.623063982       1.80022705      -0.00000000       63.6217575       2.04055905    
   0.00000000       0.00000000       0.00000000       63.6217575       2.04055905    
  0.507632971       1.83611906      -0.00000000       63.6217575       2.04055905    
   0.00000000       0.00000000       0.00000000       63.4694901       2.04131365    
  0.623063982       1.80022705      -0.00000000       63.4694901       2.04131365    
  0.679867983       1.77955198      -0.00000000       63.4694901       2.04131365    
  0.735987008       1.75708497      -0.00000000       63.4694901       2.04131365    
  0.449120998       1.85130095      -0.00000000       63.7277565       2.04004145    
  0.507632971       1.83611906      -0.00000000       63.7277565       2.04004145    
   0.00000000       0.00000000       0.00000000       63.7277565       2.04004145    
  0.390157014       1.86461902      -0.00000000       63.7277565       2.04004145    
  0.211146995       1.89326203      -0.00000000       63.8400497       2.03950095    
  0.271109998       1.88560998      -0.00000000       63.8400497       2.03950095    
   0.00000000       0.00000000       0.00000000       63.8400497       2.03950095    
  0.150970995       1.89900804      -0.00000000       63.8400497       2.03950095    
   0.00000000       0.00000000       0.00000000       63.7969398       2.03970885    
  0.271109998       1.88560998      -0.00000000       63.7969398       2.03970885    
  0.330799997       1.87605906      -0.00000000       63.7969398       2.03970885    
  0.390157014       1.86461902      -0.00000000       63.7969398       2.03970885    
   9.06440020E-02   1.90284204      -0.00000000       63.8615913       2.03939986    
  0.150970995       1.89900804      -0.00000000       63.8615913       2.03939986    
   0.00000000       0.00000000       0.00000000       63.8615913       2.03939986    
   3.02249994E-02   1.90476000      -0.00000000       63.8615913       2.03939986    
 -0.150970995       1.89900804      -0.00000000       63.8363571       2.03952169    
  -9.06440020E-02   1.90284204      -0.00000000       63.8363571       2.03952169    
   0.00000000       0.00000000       0.00000000       63.8363571       2.03952169    
 -0.211146995       1.89326203      -0.00000000       63.8363571       2.03952169    
   0.00000000       0.00000000       0.00000000       63.8595467       2.03941059    
  -9.06440020E-02   1.90284204      -0.00000000       63.8595467       2.03941059    
  -3.02249994E-02   1.90476000      -0.00000000       63.8595467       2.03941059    
   3.02249994E-02   1.90476000      -0.00000000       63.8595467       2.03941059    
 -0.271109998       1.88560998      -0.00000000       63.7911339       2.03974152    
 -0.211146995       1.89326203      -0.00000000       63.7911339       2.03974152    
   0.00000000       0.00000000       0.00000000       63.7911339       2.03974152    
 -0.330799997       1.87605906      -0.00000000       63.7911339       2.03974152    
 -0.507632971       1.83611906      -0.00000000       63.6004906       2.04067945    
 -0.449120998       1.85130095      -0.00000000       63.6004906       2.04067945    
   0.00000000       0.00000000       0.00000000       63.6004906       2.04067945    
 -0.565632999       1.81908906      -0.00000000       63.6004906       2.04067945    
   0.00000000       0.00000000       0.00000000       63.7167435       2.04010296    
 -0.449120998       1.85130095      -0.00000000       63.7167435       2.04010296    
 -0.390157014       1.86461902      -0.00000000       63.7167435       2.04010296    
 -0.330799997       1.87605906      -0.00000000       63.7167435       2.04010296    
 -0.623063982       1.80022705      -0.00000000       63.4386520       2.04148841    
 -0.565632999       1.81908906      -0.00000000       63.4386520       2.04148841    
   0.00000000       0.00000000       0.00000000       63.4386520       2.04148841    
 -0.679867983       1.77955198      -0.00000000       63.4386520       2.04148841    
 -0.845947027       1.70686805      -0.00000000       62.9350471       2.04399729    
 -0.791365981       1.73284900      -0.00000000       62.9350471       2.04399729    
   0.00000000       0.00000000       0.00000000       62.9350471       2.04399729    
 -0.899676025       1.67916906      -0.00000000       62.9350471       2.04399729    
   0.00000000       0.00000000       0.00000000       63.2197380       2.04258251    
 -0.791365981       1.73284900      -0.00000000       63.2197380       2.04258251    
 -0.735987008       1.75708497      -0.00000000       63.2197380       2.04258251    
 -0.679867983       1.77955198      -0.00000000       63.2197380       2.04258251    
 -0.952499986       1.64977801      -0.00000000       62.5835953       2.04571986    
 -0.899676025       1.67916906      -0.00000000       62.5835953       2.04571986    
   0.00000000       0.00000000       0.00000000       62.5835953       2.04571986    
  -1.00436401       1.61872697      -0.00000000       62.5835953       2.04571986    
  -1.15368605       1.51592600      -0.00000000       61.7136536       2.04981804    
  -1.10500801       1.55176699      -0.00000000       61.7136536       2.04981804    
   0.00000000       0.00000000       0.00000000       61.7136536       2.04981804    
  -1.20120299       1.47855902      -0.00000000       61.7136536       2.04981804    
   0.00000000       0.00000000       0.00000000       62.1712456       2.04769421    
  -1.10500801       1.55176699      -0.00000000       62.1712456       2.04769421    
  -1.05521798       1.58604598      -0.00000000       62.1712456       2.04769421    
  -1.00436401       1.61872697      -0.00000000       62.1712456       2.04769421    
  -1.24750996       1.43970299      -0.00000000       61.2617340       2.05182242    
  -1.20120299       1.47855902      -0.00000000       61.2617340       2.05182242    
   0.00000000       0.00000000       0.00000000       61.2617340       2.05182242    
  -1.29255998       1.39939702      -0.00000000       61.2617340       2.05182242    
  -1.41972899       1.27019501      -0.00000000       61.2811089       2.05168056    
  -1.37871301       1.31459999      -0.00000000       61.2811089       2.05168056    
   0.00000000       0.00000000       0.00000000       61.2811089       2.05168056    
  -1.45931494       1.22450995      -0.00000000       61.2811089       2.05168056    
   0.00000000       0.00000000       0.00000000       61.0262680       2.05281043    
  -1.37871301       1.31459999      -0.00000000       61.0262680       2.05281043    
  -1.33631003       1.35768199      -0.00000000       61.0262680       2.05281043    
  -1.29255998       1.39939702      -0.00000000       61.0262680       2.05281043    
  -1.49743104       1.17759299      -0.00000000       61.7586403       2.04952908    
  -1.45931494       1.22450995      -0.00000000       61.7586403       2.04952908    
   0.00000000       0.00000000       0.00000000       61.7586403       2.04952908    
  -1.53403997       1.12949002      -0.00000000       61.7586403       2.04952908    
  -1.63445795      0.978555024      -0.00000000       62.6526337       2.04531217    
  -1.60258806       1.02992105      -0.00000000       62.6526337       2.04531217    
   0.00000000       0.00000000       0.00000000       62.6526337       2.04531217    
  -1.66468298      0.926204979      -0.00000000       62.6526337       2.04531217    
   0.00000000       0.00000000       0.00000000       62.2334518       2.04731727    
  -1.60258806       1.02992105      -0.00000000       62.2334518       2.04731727    
  -1.56910396       1.08024895      -0.00000000       62.2334518       2.04731727    
  -1.53403997       1.12949002      -0.00000000       62.2334518       2.04731727    
  -1.69323206      0.872922003      -0.00000000       63.0014381       2.04361439    
  -1.66468298      0.926204979      -0.00000000       63.0014381       2.04361439    
   0.00000000       0.00000000       0.00000000       63.0014381       2.04361439    
  -1.72007501      0.818759024      -0.00000000       63.0014381       2.04361439    
  -1.79011405      0.651548028      -0.00000000       63.4831276       2.04124212    
  -1.76854098      0.708016992      -0.00000000       63.4831276       2.04124212    
   0.00000000       0.00000000       0.00000000       63.4831276       2.04124212    
  -1.80988598      0.594424009      -0.00000000       63.4831276       2.04124212    
   0.00000000       0.00000000       0.00000000       63.2754211       2.04226851    
  -1.76854098      0.708016992      -0.00000000       63.2754211       2.04226851    
  -1.74518704      0.763773024      -0.00000000       63.2754211       2.04226851    
  -1.72007501      0.818759024      -0.00000000       63.2754211       2.04226851    
  -1.82783401      0.536701024      -0.00000000       63.6344719       2.04049301    
  -1.80988598      0.594424009      -0.00000000       63.6344719       2.04049301    
   0.00000000       0.00000000       0.00000000       63.6344719       2.04049301    
  -1.84394205      0.478437006      -0.00000000       63.6344719       2.04049301    
  -1.88107097      0.300992996      -0.00000000       63.8080482       2.03964996    
  -1.87057400      0.360523999      -0.00000000       63.8080482       2.03964996    
   0.00000000       0.00000000       0.00000000       63.8080482       2.03964996    
  -1.88967395      0.241159007      -0.00000000       63.8080482       2.03964996    
   0.00000000       0.00000000       0.00000000       63.7393913       2.03998232    
  -1.87057400      0.360523999      -0.00000000       63.7393913       2.03998232    
  -1.85819399      0.419692010      -0.00000000       63.7393913       2.03998232    
  -1.84394205      0.478437006      -0.00000000       63.7393913       2.03998232    
  -1.89637399      0.181081995      -0.00000000       63.8505402       2.03944850    
  -1.88967395      0.241159007      -0.00000000       63.8505402       2.03944850    
   0.00000000       0.00000000       0.00000000       63.8505402       2.03944850    
  -1.90116501      0.120823003      -0.00000000       63.8505402       2.03944850    
  -1.90404105      -6.04420006E-02  -0.00000000       63.8694801       2.03936148    
  -1.90499997       0.00000000      -0.00000000       63.8694801       2.03936148    
   0.00000000       0.00000000       0.00000000       63.8694801       2.03936148    
  -1.90116501     -0.120823003      -0.00000000       63.8694801       2.03936148    
   0.00000000       0.00000000       0.00000000       63.8717079       2.03934669    
  -1.90499997       0.00000000      -0.00000000       63.8717079       2.03934669    
  -1.90404105       6.04420006E-02  -0.00000000       63.8717079       2.03934669    
  -1.90116501      0.120823003      -0.00000000       63.8717079       2.03934669    
  -1.89637399     -0.181081995      -0.00000000       63.8458786       2.03947544    
  -1.90116501     -0.120823003      -0.00000000       63.8458786       2.03947544    
   0.00000000       0.00000000       0.00000000       63.8458786       2.03947544    
  -1.88967395     -0.241159007      -0.00000000       63.8458786       2.03947544    
  -1.85819399     -0.419692010      -0.00000000       63.7247620       2.04006457    
  -1.87057400     -0.360523999      -0.00000000       63.7247620       2.04006457    
   0.00000000       0.00000000       0.00000000       63.7247620       2.04006457    
  -1.84394205     -0.478437006      -0.00000000       63.7247620       2.04006457    
   0.00000000       0.00000000       0.00000000       63.8000298       2.03969979    
  -1.87057400     -0.360523999      -0.00000000       63.8000298       2.03969979    
  -1.88107097     -0.300992996      -0.00000000       63.8000298       2.03969979    
  -1.88967395     -0.241159007      -0.00000000       63.8000298       2.03969979    
  -1.82783401     -0.536701024      -0.00000000       63.6077080       2.04064345    
  -1.84394205     -0.478437006      -0.00000000       63.6077080       2.04064345    
   0.00000000       0.00000000       0.00000000       63.6077080       2.04064345    
  -1.80988598     -0.594424009      -0.00000000       63.6077080       2.04064345    
  -1.74518704     -0.763773024      -0.00000000       63.2248421       2.04255819    
  -1.76854098     -0.708016992      -0.00000000       63.2248421       2.04255819    
   0.00000000       0.00000000       0.00000000       63.2248421       2.04255819    
  -1.72007501     -0.818759024      -0.00000000       63.2248421       2.04255819    
   0.00000000       0.00000000       0.00000000       63.4447556       2.04146051    
  -1.76854098     -0.708016992      -0.00000000       63.4447556       2.04146051    
  -1.79011405     -0.651548028      -0.00000000       63.4447556       2.04146051    
  -1.80988598     -0.594424009      -0.00000000       63.4447556       2.04146051    
  -1.69323206     -0.872922003      -0.00000000       62.9390488       2.04397821    
  -1.72007501     -0.818759024      -0.00000000       62.9390488       2.04397821    
   0.00000000       0.00000000       0.00000000       62.9390488       2.04397821    
  -1.66468298     -0.926204979      -0.00000000       62.9390488       2.04397821    
  -1.56910396      -1.08024895      -0.00000000       62.1727486       2.04768777    
  -1.60258806      -1.02992105      -0.00000000       62.1727486       2.04768777    
   0.00000000       0.00000000       0.00000000       62.1727486       2.04768777    
  -1.53403997      -1.12949002      -0.00000000       62.1727486       2.04768777    
   0.00000000       0.00000000       0.00000000       62.5862770       2.04570651    
  -1.60258806      -1.02992105      -0.00000000       62.5862770       2.04570651    
  -1.63445795     -0.978555024      -0.00000000       62.5862770       2.04570651    
  -1.66468298     -0.926204979      -0.00000000       62.5862770       2.04570651    
  -1.49743104      -1.17759299      -0.00000000       61.7136841       2.04981828    
  -1.53403997      -1.12949002      -0.00000000       61.7136841       2.04981828    
   0.00000000       0.00000000       0.00000000       61.7136841       2.04981828    
  -1.45931494      -1.22450995      -0.00000000       61.7136841       2.04981828    
  -1.33631003      -1.35768199      -0.00000000       61.0251389       2.05281687    
  -1.37871301      -1.31459999      -0.00000000       61.0251389       2.05281687    
   0.00000000       0.00000000       0.00000000       61.0251389       2.05281687    
  -1.29255998      -1.39939702      -0.00000000       61.0251389       2.05281687    
   0.00000000       0.00000000       0.00000000       61.2603188       2.05182958    
  -1.37871301      -1.31459999      -0.00000000       61.2603188       2.05182958    
  -1.41972899      -1.27019501      -0.00000000       61.2603188       2.05182958    
  -1.45931494      -1.22450995      -0.00000000       61.2603188       2.05182958    
  -1.24750996      -1.43970299      -0.00000000       61.2801056       2.05168819    
  -1.29255998      -1.39939702      -0.00000000       61.2801056       2.05168819    
   0.00000000       0.00000000       0.00000000       61.2801056       2.05168819    
  -1.20120299      -1.47855902      -0.00000000       61.2801056       2.05168819    
  -1.05521798      -1.58604598      -0.00000000       62.2296982       2.04733753    
  -1.10500801      -1.55176699      -0.00000000       62.2296982       2.04733753    
   0.00000000       0.00000000       0.00000000       62.2296982       2.04733753    
  -1.00436401      -1.61872697      -0.00000000       62.2296982       2.04733753    
   0.00000000       0.00000000       0.00000000       61.7564735       2.04954219    
  -1.10500801      -1.55176699      -0.00000000       61.7564735       2.04954219    
  -1.15368605      -1.51592600      -0.00000000       61.7564735       2.04954219    
  -1.20120299      -1.47855902      -0.00000000       61.7564735       2.04954219    
 -0.952499986      -1.64977801      -0.00000000       62.6476517       2.04533672    
  -1.00436401      -1.61872697      -0.00000000       62.6476517       2.04533672    
   0.00000000       0.00000000       0.00000000       62.6476517       2.04533672    
 -0.899676025      -1.67916906      -0.00000000       62.6476517       2.04533672    
 -0.735987008      -1.75708497      -0.00000000       63.2681732       2.04230237    
 -0.791365981      -1.73284900      -0.00000000       63.2681732       2.04230237    
   0.00000000       0.00000000       0.00000000       63.2681732       2.04230237    
 -0.679867983      -1.77955198      -0.00000000       63.2681732       2.04230237    
   0.00000000       0.00000000       0.00000000       62.9952469       2.04364491    
 -0.791365981      -1.73284900      -0.00000000       62.9952469       2.04364491    
 -0.845947027      -1.70686805      -0.00000000       62.9952469       2.04364491    
 -0.899676025      -1.67916906      -0.00000000       62.9952469       2.04364491    
 -0.623063982      -1.80022705      -0.00000000       63.4748154       2.04128122    
 -0.679867983      -1.77955198      -0.00000000       63.4748154       2.04128122    
   0.00000000       0.00000000       0.00000000       63.4748154       2.04128122    
 -0.565632999      -1.81908906      -0.00000000       63.4748154       2.04128122    
 -0.390157014      -1.86461902      -0.00000000       63.7292938       2.04003119    
 -0.449120998      -1.85130095      -0.00000000       63.7292938       2.04003119    
   0.00000000       0.00000000       0.00000000       63.7292938       2.04003119    
 -0.330799997      -1.87605906      -0.00000000       63.7292938       2.04003119    
   0.00000000       0.00000000       0.00000000       63.6251602       2.04053736    
 -0.449120998      -1.85130095      -0.00000000       63.6251602       2.04053736    
 -0.507632971      -1.83611906      -0.00000000       63.6251602       2.04053736    
 -0.565632999      -1.81908906      -0.00000000       63.6251602       2.04053736    
 -0.271109998      -1.88560998      -0.00000000       63.7972641       2.03970242    
 -0.330799997      -1.87605906      -0.00000000       63.7972641       2.03970242    
   0.00000000       0.00000000       0.00000000       63.7972641       2.03970242    
 -0.211146995      -1.89326203      -0.00000000       63.7972641       2.03970242    
  -3.02249994E-02  -1.90476000      -0.00000000       63.8601494       2.03940511    
  -9.06440020E-02  -1.90284204      -0.00000000       63.8601494       2.03940511    
   0.00000000       0.00000000       0.00000000       63.8601494       2.03940511    
   3.02249994E-02  -1.90476000      -0.00000000       63.8601494       2.03940511    
   0.00000000       0.00000000       0.00000000       63.8393478       2.03950357    
  -9.06440020E-02  -1.90284204      -0.00000000       63.8393478       2.03950357    
 -0.150970995      -1.89900804      -0.00000000       63.8393478       2.03950357    
 -0.211146995      -1.89326203      -0.00000000       63.8393478       2.03950357    
   9.06440020E-02  -1.90284204      -0.00000000       63.8574600       2.03942013    
   3.02249994E-02  -1.90476000      -0.00000000       63.8574600       2.03942013    
   0.00000000       0.00000000       0.00000000       63.8574600       2.03942013    
  0.150970995      -1.89900804      -0.00000000       63.8574600       2.03942013    
  0.330799997      -1.87605906      -0.00000000       63.7869186       2.03976178    
  0.271109998      -1.88560998      -0.00000000       63.7869186       2.03976178    
   0.00000000       0.00000000       0.00000000       63.7869186       2.03976178    
  0.390157014      -1.86461902      -0.00000000       63.7869186       2.03976178    
   0.00000000       0.00000000       0.00000000       63.8334694       2.03953576    
  0.271109998      -1.88560998      -0.00000000       63.8334694       2.03953576    
  0.211146995      -1.89326203      -0.00000000       63.8334694       2.03953576    
  0.150970995      -1.89900804      -0.00000000       63.8334694       2.03953576    
  0.449120998      -1.85130095      -0.00000000       63.7108421       2.04013515    
  0.390157014      -1.86461902      -0.00000000       63.7108421       2.04013515    
   0.00000000       0.00000000       0.00000000       63.7108421       2.04013515    
  0.507632971      -1.83611906      -0.00000000       63.7108421       2.04013515    
  0.679867983      -1.77955198      -0.00000000       63.4280357       2.04154754    
  0.623063982      -1.80022705      -0.00000000       63.4280357       2.04154754    
   0.00000000       0.00000000       0.00000000       63.4280357       2.04154754    
  0.735987008      -1.75708497      -0.00000000       63.4280357       2.04154754    
   0.00000000       0.00000000       0.00000000       63.5923347       2.04072237    
  0.623063982      -1.80022705      -0.00000000       63.5923347       2.04072237    
  0.565632999      -1.81908906      -0.00000000       63.5923347       2.04072237    
  0.507632971      -1.83611906      -0.00000000       63.5923347       2.04072237    
  0.791365981      -1.73284900      -0.00000000       63.2068939       2.04265237    
  0.735987008      -1.75708497      -0.00000000       63.2068939       2.04265237    
   0.00000000       0.00000000       0.00000000       63.2068939       2.04265237    
  0.845947027      -1.70686805      -0.00000000       63.2068939       2.04265237    
   1.00436401      -1.61872697      -0.00000000       62.5647812       2.04582024    
  0.952499986      -1.64977801      -0.00000000       62.5647812       2.04582024    
   0.00000000       0.00000000       0.00000000       62.5647812       2.04582024    
   1.05521798      -1.58604598      -0.00000000       62.5647812       2.04582024    
   0.00000000       0.00000000       0.00000000       62.9194489       2.04408121    
  0.952499986      -1.64977801      -0.00000000       62.9194489       2.04408121    
  0.899676025      -1.67916906      -0.00000000       62.9194489       2.04408121    
  0.845947027      -1.70686805      -0.00000000       62.9194489       2.04408121    
   1.10500801      -1.55176699      -0.00000000       62.1489944       2.04781628    
   1.05521798      -1.58604598      -0.00000000       62.1489944       2.04781628    
   0.00000000       0.00000000       0.00000000       62.1489944       2.04781628    
   1.15368605      -1.51592600      -0.00000000       62.1489944       2.04781628    
   1.29255998      -1.39939702      -0.00000000       61.2313576       2.05198789    
   1.24750996      -1.43970299      -0.00000000       61.2313576       2.05198789    
   0.00000000       0.00000000       0.00000000       61.2313576       2.05198789    
   1.33631003      -1.35768199      -0.00000000       61.2313576       2.05198789    
   0.00000000       0.00000000       0.00000000       61.6870346       2.04996276    
   1.24750996      -1.43970299      -0.00000000       61.6870346       2.04996276    
   1.20120299      -1.47855902      -0.00000000       61.6870346       2.04996276    