 VARIABLES="X" "Y" "Z" "abs(p) (Pa)" "angle(p) (rad)"
ZONE N=    802,E =     800, F=FEPOINT, ET=QUADRILATERAL
   1.90499997       0.00000000      -0.00000000       2.14913440       1.89839172    
   1.90404105      -6.04420006E-02  -0.00000000       2.14913440       1.89839172    
   0.00000000       0.00000000       0.00000000       2.14913440       1.89839172    
   1.90404105       6.04420006E-02  -0.00000000       2.14913440       1.89839172    
   1.88967395      0.241159007      -0.00000000       2.16138148       1.89635849    
   1.89637399      0.181081995      -0.00000000       2.16138148       1.89635849    
   0.00000000       0.00000000       0.00000000       2.16138148       1.89635849    
   1.88107097      0.300992996      -0.00000000       2.16138148       1.89635849    
   0.00000000       0.00000000       0.00000000       2.15172029       1.89795852    
   1.89637399      0.181081995      -0.00000000       2.15172029       1.89795852    
   1.90116501      0.120823003      -0.00000000       2.15172029       1.89795852    
   1.90404105       6.04420006E-02  -0.00000000       2.15172029       1.89795852    
   1.87057400      0.360523999      -0.00000000       2.18017864       1.89329338    
   1.88107097      0.300992996      -0.00000000       2.18017864       1.89329338    
   0.00000000       0.00000000       0.00000000       2.18017864       1.89329338    
   1.85819399      0.419692010      -0.00000000       2.18017864       1.89329338    
   1.80988598      0.594424009      -0.00000000       2.25347757       1.88187242    
   1.82783401      0.536701024      -0.00000000       2.25347757       1.88187242    
   0.00000000       0.00000000       0.00000000       2.25347757       1.88187242    
   1.79011405      0.651548028      -0.00000000       2.25347757       1.88187242    
   0.00000000       0.00000000       0.00000000       2.20961165       1.88861227    
   1.82783401      0.536701024      -0.00000000       2.20961165       1.88861227    
   1.84394205      0.478437006      -0.00000000       2.20961165       1.88861227    
   1.85819399      0.419692010      -0.00000000       2.20961165       1.88861227    
   1.76854098      0.708016992      -0.00000000       2.31487417       1.87288761    
   1.79011405      0.651548028      -0.00000000       2.31487417       1.87288761    
   0.00000000       0.00000000       0.00000000       2.31487417       1.87288761    
   1.74518704      0.763773024      -0.00000000       2.31487417       1.87288761    
   1.66468298      0.926204979      -0.00000000       2.49133849       1.84954107    
   1.69323206      0.872922003      -0.00000000       2.49133849       1.84954107    
   0.00000000       0.00000000       0.00000000       2.49133849       1.84954107    
   1.63445795      0.978555024      -0.00000000       2.49133849       1.84954107    
   0.00000000       0.00000000       0.00000000       2.39421058       1.86196828    
   1.69323206      0.872922003      -0.00000000       2.39421058       1.86196828    
   1.72007501      0.818759024      -0.00000000       2.39421058       1.86196828    
   1.74518704      0.763773024      -0.00000000       2.39421058       1.86196828    
   1.60258806       1.02992105      -0.00000000       2.60218930       1.83646560    
   1.63445795      0.978555024      -0.00000000       2.60218930       1.83646560    
   0.00000000       0.00000000       0.00000000       2.60218930       1.83646560    
   1.56910396       1.08024895      -0.00000000       2.60218930       1.83646560    
   1.45931494       1.22450995      -0.00000000       2.82050848       1.81344998    
   1.49743104       1.17759299      -0.00000000       2.82050848       1.81344998    
   0.00000000       0.00000000       0.00000000       2.82050848       1.81344998    
   1.41972899       1.27019501      -0.00000000       2.82050848       1.81344998    
   0.00000000       0.00000000       0.00000000       2.71726537       1.82394207    
   1.49743104       1.17759299      -0.00000000       2.71726537       1.82394207    
   1.53403997       1.12949002      -0.00000000       2.71726537       1.82394207    
   1.56910396       1.08024895      -0.00000000       2.71726537       1.82394207    
   1.37871301       1.31459999      -0.00000000       2.86800551       1.80878663    
   1.41972899       1.27019501      -0.00000000       2.86800551       1.80878663    
   0.00000000       0.00000000       0.00000000       2.86800551       1.80878663    
   1.33631003       1.35768199      -0.00000000       2.86800551       1.80878663    
   1.20120299       1.47855902      -0.00000000       2.69117856       1.82651210    
   1.24750996       1.43970299      -0.00000000       2.69117856       1.82651210    
   0.00000000       0.00000000       0.00000000       2.69117856       1.82651210    
   1.15368605       1.51592600      -0.00000000       2.69117856       1.82651210    
   0.00000000       0.00000000       0.00000000       2.80769515       1.81459022    
   1.24750996       1.43970299      -0.00000000       2.80769515       1.81459022    
   1.29255998       1.39939702      -0.00000000       2.80769515       1.81459022    
   1.33631003       1.35768199      -0.00000000       2.80769515       1.81459022    
   1.10500801       1.55176699      -0.00000000       2.56742334       1.84025753    
   1.15368605       1.51592600      -0.00000000       2.56742334       1.84025753    
   0.00000000       0.00000000       0.00000000       2.56742334       1.84025753    
   1.05521798       1.58604598      -0.00000000       2.56742334       1.84025753    
  0.899676025       1.67916906      -0.00000000       2.35546422       1.86704946    
  0.952499986       1.64977801      -0.00000000       2.35546422       1.86704946    
   0.00000000       0.00000000       0.00000000       2.35546422       1.86704946    
  0.845947027       1.70686805      -0.00000000       2.35546422       1.86704946    
   0.00000000       0.00000000       0.00000000       2.45334601       1.85410869    
  0.952499986       1.64977801      -0.00000000       2.45334601       1.85410869    
   1.00436401       1.61872697      -0.00000000       2.45334601       1.85410869    
   1.05521798       1.58604598      -0.00000000       2.45334601       1.85410869    
  0.791365981       1.73284900      -0.00000000       2.27697873       1.87823617    
  0.845947027       1.70686805      -0.00000000       2.27697873       1.87823617    
   0.00000000       0.00000000       0.00000000       2.27697873       1.87823617    
  0.735987008       1.75708497      -0.00000000       2.27697873       1.87823617    
  0.565632999       1.81908906      -0.00000000       2.17568636       1.89391983    
  0.623063982       1.80022705      -0.00000000       2.17568636       1.89391983    
   0.00000000       0.00000000       0.00000000       2.17568636       1.89391983    
  0.507632971       1.83611906      -0.00000000       2.17568636       1.89391983    
   0.00000000       0.00000000       0.00000000       2.21805334       1.88717365    
  0.623063982       1.80022705      -0.00000000       2.21805334       1.88717365    
  0.679867983       1.77955198      -0.00000000       2.21805334       1.88717365    
  0.735987008       1.75708497      -0.00000000       2.21805334       1.88717365    
  0.449120998       1.85130095      -0.00000000       2.14658284       1.89871728    
  0.507632971       1.83611906      -0.00000000       2.14658284       1.89871728    
   0.00000000       0.00000000       0.00000000       2.14658284       1.89871728    
  0.390157014       1.86461902      -0.00000000       2.14658284       1.89871728    
  0.211146995       1.89326203      -0.00000000       2.11727715       1.90370655    
  0.271109998       1.88560998      -0.00000000       2.11727715       1.90370655    
   0.00000000       0.00000000       0.00000000       2.11727715       1.90370655    
  0.150970995       1.89900804      -0.00000000       2.11727715       1.90370655    
   0.00000000       0.00000000       0.00000000       2.12742209       1.90195668    
  0.271109998       1.88560998      -0.00000000       2.12742209       1.90195668    
  0.330799997       1.87605906      -0.00000000       2.12742209       1.90195668    
  0.390157014       1.86461902      -0.00000000       2.12742209       1.90195668    
   9.06440020E-02   1.90284204      -0.00000000       2.11309242       1.90443766    
  0.150970995       1.89900804      -0.00000000       2.11309242       1.90443766    
   0.00000000       0.00000000       0.00000000       2.11309242       1.90443766    
   3.02249994E-02   1.90476000      -0.00000000       2.11309242       1.90443766    
 -0.150970995       1.89900804      -0.00000000       2.11792088       1.90358698    
  -9.06440020E-02   1.90284204      -0.00000000       2.11792088       1.90358698    
   0.00000000       0.00000000       0.00000000       2.11792088       1.90358698    
 -0.211146995       1.89326203      -0.00000000       2.11792088       1.90358698    
   0.00000000       0.00000000       0.00000000       2.11308360       1.90443456    
  -9.06440020E-02   1.90284204      -0.00000000       2.11308360       1.90443456    
  -3.02249994E-02   1.90476000      -0.00000000       2.11308360       1.90443456    
   3.02249994E-02   1.90476000      -0.00000000       2.11308360       1.90443456    
 -0.271109998       1.88560998      -0.00000000       2.13038206       1.90144873    
 -0.211146995       1.89326203      -0.00000000       2.13038206       1.90144873    
   0.00000000       0.00000000       0.00000000       2.13038206       1.90144873    
 -0.330799997       1.87605906      -0.00000000       2.13038206       1.90144873    
 -0.507632971       1.83611906      -0.00000000       2.18372822       1.89262199    
 -0.449120998       1.85130095      -0.00000000       2.18372822       1.89262199    
   0.00000000       0.00000000       0.00000000       2.18372822       1.89262199    
 -0.565632999       1.81908906      -0.00000000       2.18372822       1.89262199    
   0.00000000       0.00000000       0.00000000       2.15176272       1.89784956    
 -0.449120998       1.85130095      -0.00000000       2.15176272       1.89784956    
 -0.390157014       1.86461902      -0.00000000       2.15176272       1.89784956    
 -0.330799997       1.87605906      -0.00000000       2.15176272       1.89784956    
 -0.623063982       1.80022705      -0.00000000       2.23030734       1.88529348    
 -0.565632999       1.81908906      -0.00000000       2.23030734       1.88529348    
   0.00000000       0.00000000       0.00000000       2.23030734       1.88529348    
 -0.679867983       1.77955198      -0.00000000       2.23030734       1.88529348    
 -0.845947027       1.70686805      -0.00000000       2.37653232       1.86423433    
 -0.791365981       1.73284900      -0.00000000       2.37653232       1.86423433    
   0.00000000       0.00000000       0.00000000       2.37653232       1.86423433    
 -0.899676025       1.67916906      -0.00000000       2.37653232       1.86423433    
   0.00000000       0.00000000       0.00000000       2.29441547       1.87572217    
 -0.791365981       1.73284900      -0.00000000       2.29441547       1.87572217    
 -0.735987008       1.75708497      -0.00000000       2.29441547       1.87572217    
 -0.679867983       1.77955198      -0.00000000       2.29441547       1.87572217    
 -0.952499986       1.64977801      -0.00000000       2.47571969       1.85137236    
 -0.899676025       1.67916906      -0.00000000       2.47571969       1.85137236    
   0.00000000       0.00000000       0.00000000       2.47571969       1.85137236    
  -1.00436401       1.61872697      -0.00000000       2.47571969       1.85137236    
  -1.15368605       1.51592600      -0.00000000       2.70433998       1.82519209    
  -1.10500801       1.55176699      -0.00000000       2.70433998       1.82519209    
   0.00000000       0.00000000       0.00000000       2.70433998       1.82519209    
  -1.20120299       1.47855902      -0.00000000       2.70433998       1.82519209    
   0.00000000       0.00000000       0.00000000       2.58806729       1.83796799    
  -1.10500801       1.55176699      -0.00000000       2.58806729       1.83796799    
  -1.05521798       1.58604598      -0.00000000       2.58806729       1.83796799    
  -1.00436401       1.61872697      -0.00000000       2.58806729       1.83796799    
  -1.24750996       1.43970299      -0.00000000       2.80854225       1.81451464    
  -1.20120299       1.47855902      -0.00000000       2.80854225       1.81451464    
   0.00000000       0.00000000       0.00000000       2.80854225       1.81451464    
  -1.29255998       1.39939702      -0.00000000       2.80854225       1.81451464    
  -1.41972899       1.27019501      -0.00000000       2.79696846       1.81555104    
  -1.37871301       1.31459999      -0.00000000       2.79696846       1.81555104    
   0.00000000       0.00000000       0.00000000       2.79696846       1.81555104    
  -1.45931494       1.22450995      -0.00000000       2.79696846       1.81555104    
   0.00000000       0.00000000       0.00000000       2.85653353       1.80977201    
  -1.37871301       1.31459999      -0.00000000       2.85653353       1.80977201    
  -1.33631003       1.35768199      -0.00000000       2.85653353       1.80977201    
  -1.29255998       1.39939702      -0.00000000       2.85653353       1.80977201    
  -1.49743104       1.17759299      -0.00000000       2.68173575       1.82742870    
  -1.45931494       1.22450995      -0.00000000       2.68173575       1.82742870    
   0.00000000       0.00000000       0.00000000       2.68173575       1.82742870    
  -1.53403997       1.12949002      -0.00000000       2.68173575       1.82742870    
  -1.63445795      0.978555024      -0.00000000       2.44582129       1.85497701    
  -1.60258806       1.02992105      -0.00000000       2.44582129       1.85497701    
   0.00000000       0.00000000       0.00000000       2.44582129       1.85497701    
  -1.66468298      0.926204979      -0.00000000       2.44582129       1.85497701    
   0.00000000       0.00000000       0.00000000       2.55905271       1.84114277    
  -1.60258806       1.02992105      -0.00000000       2.55905271       1.84114277    
  -1.56910396       1.08024895      -0.00000000       2.55905271       1.84114277    
  -1.53403997       1.12949002      -0.00000000       2.55905271       1.84114277    
  -1.69323206      0.872922003      -0.00000000       2.34866238       1.86789596    
  -1.66468298      0.926204979      -0.00000000       2.34866238       1.86789596    
   0.00000000       0.00000000       0.00000000       2.34866238       1.86789596    
  -1.72007501      0.818759024      -0.00000000       2.34866238       1.86789596    
  -1.79011405      0.651548028      -0.00000000       2.21248364       1.88794613    
  -1.76854098      0.708016992      -0.00000000       2.21248364       1.88794613    
   0.00000000       0.00000000       0.00000000       2.21248364       1.88794613    
  -1.80988598      0.594424009      -0.00000000       2.21248364       1.88794613    
   0.00000000       0.00000000       0.00000000       2.27080822       1.87905335    
  -1.76854098      0.708016992      -0.00000000       2.27080822       1.87905335    
  -1.74518704      0.763773024      -0.00000000       2.27080822       1.87905335    
  -1.72007501      0.818759024      -0.00000000       2.27080822       1.87905335    
  -1.82783401      0.536701024      -0.00000000       2.17063141       1.89464271    
  -1.80988598      0.594424009      -0.00000000       2.17063141       1.89464271    
   0.00000000       0.00000000       0.00000000       2.17063141       1.89464271    
  -1.84394205      0.478437006      -0.00000000       2.17063141       1.89464271    
  -1.88107097      0.300992996      -0.00000000       2.12317896       1.90258372    
  -1.87057400      0.360523999      -0.00000000       2.12317896       1.90258372    
   0.00000000       0.00000000       0.00000000       2.12317896       1.90258372    
  -1.88967395      0.241159007      -0.00000000       2.12317896       1.90258372    
   0.00000000       0.00000000       0.00000000       2.14197206       1.89939094    
  -1.87057400      0.360523999      -0.00000000       2.14197206       1.89939094    
  -1.85819399      0.419692010      -0.00000000       2.14197206       1.89939094    
  -1.84394205      0.478437006      -0.00000000       2.14197206       1.89939094    
  -1.89637399      0.181081995      -0.00000000       2.11333823       1.90429139    
  -1.88967395      0.241159007      -0.00000000       2.11333823       1.90429139    
   0.00000000       0.00000000       0.00000000       2.11333823       1.90429139    
  -1.90116501      0.120823003      -0.00000000       2.11333823       1.90429139    
  -1.90404105      -6.04420006E-02  -0.00000000       2.10956740       1.90495944    
  -1.90499997       0.00000000      -0.00000000       2.10956740       1.90495944    
   0.00000000       0.00000000       0.00000000       2.10956740       1.90495944    
  -1.90116501     -0.120823003      -0.00000000       2.10956740       1.90495944    
   0.00000000       0.00000000       0.00000000       2.10937572       1.90499067    
  -1.90499997       0.00000000      -0.00000000       2.10937572       1.90499067    
  -1.90404105       6.04420006E-02  -0.00000000       2.10937572       1.90499067    
  -1.90116501      0.120823003      -0.00000000       2.10937572       1.90499067    
  -1.89637399     -0.181081995      -0.00000000       2.11468935       1.90406609    
  -1.90116501     -0.120823003      -0.00000000       2.11468935       1.90406609    
   0.00000000       0.00000000       0.00000000       2.11468935       1.90406609    
  -1.88967395     -0.241159007      -0.00000000       2.11468935       1.90406609    
  -1.85819399     -0.419692010      -0.00000000       2.14916110       1.89821863    
  -1.87057400     -0.360523999      -0.00000000       2.14916110       1.89821863    
   0.00000000       0.00000000       0.00000000       2.14916110       1.89821863    
  -1.84394205     -0.478437006      -0.00000000       2.14916110       1.89821863    
   0.00000000       0.00000000       0.00000000       2.12747550       1.90187120    
  -1.87057400     -0.360523999      -0.00000000       2.12747550       1.90187120    
  -1.88107097     -0.300992996      -0.00000000       2.12747550       1.90187120    
  -1.88967395     -0.241159007      -0.00000000       2.12747550       1.90187120    
  -1.82783401     -0.536701024      -0.00000000       2.18145418       1.89293432    
  -1.84394205     -0.478437006      -0.00000000       2.18145418       1.89293432    
   0.00000000       0.00000000       0.00000000       2.18145418       1.89293432    
  -1.80988598     -0.594424009      -0.00000000       2.18145418       1.89293432    
  -1.74518704     -0.763773024      -0.00000000       2.29292583       1.87589979    
  -1.76854098     -0.708016992      -0.00000000       2.29292583       1.87589979    
   0.00000000       0.00000000       0.00000000       2.29292583       1.87589979    
  -1.72007501     -0.818759024      -0.00000000       2.29292583       1.87589979    
   0.00000000       0.00000000       0.00000000       2.22840691       1.88553810    
  -1.76854098     -0.708016992      -0.00000000       2.22840691       1.88553810    
  -1.79011405     -0.651548028      -0.00000000       2.22840691       1.88553810    
  -1.80988598     -0.594424009      -0.00000000       2.22840691       1.88553810    
  -1.69323206     -0.872922003      -0.00000000       2.37549663       1.86434388    
  -1.72007501     -0.818759024      -0.00000000       2.37549663       1.86434388    
   0.00000000       0.00000000       0.00000000       2.37549663       1.86434388    
  -1.66468298     -0.926204979      -0.00000000       2.37549663       1.86434388    
  -1.56910396      -1.08024895      -0.00000000       2.58809853       1.83794999    
  -1.60258806      -1.02992105      -0.00000000       2.58809853       1.83794999    
   0.00000000       0.00000000       0.00000000       2.58809853       1.83794999    
  -1.53403997      -1.12949002      -0.00000000       2.58809853       1.83794999    
   0.00000000       0.00000000       0.00000000       2.47518086       1.85141611    
  -1.60258806      -1.02992105      -0.00000000       2.47518086       1.85141611    
  -1.63445795     -0.978555024      -0.00000000       2.47518086       1.85141611    
  -1.66468298     -0.926204979      -0.00000000       2.47518086       1.85141611    
  -1.49743104      -1.17759299      -0.00000000       2.70494604       1.82512200    
  -1.53403997      -1.12949002      -0.00000000       2.70494604       1.82512200    
   0.00000000       0.00000000       0.00000000       2.70494604       1.82512200    
  -1.45931494      -1.22450995      -0.00000000       2.70494604       1.82512200    
  -1.33631003      -1.35768199      -0.00000000       2.85782814       1.80965924    
  -1.37871301      -1.31459999      -0.00000000       2.85782814       1.80965924    
   0.00000000       0.00000000       0.00000000       2.85782814       1.80965924    
  -1.29255998      -1.39939702      -0.00000000       2.85782814       1.80965924    
   0.00000000       0.00000000       0.00000000       2.80967021       1.81440616    
  -1.37871301      -1.31459999      -0.00000000       2.80967021       1.81440616    
  -1.41972899      -1.27019501      -0.00000000       2.80967021       1.81440616    
  -1.45931494      -1.22450995      -0.00000000       2.80967021       1.81440616    
  -1.24750996      -1.43970299      -0.00000000       2.79827166       1.81543839    
  -1.29255998      -1.39939702      -0.00000000       2.79827166       1.81543839    
   0.00000000       0.00000000       0.00000000       2.79827166       1.81543839    
  -1.20120299      -1.47855902      -0.00000000       2.79827166       1.81543839    
  -1.05521798      -1.58604598      -0.00000000       2.56078696       1.84096491    
  -1.10500801      -1.55176699      -0.00000000       2.56078696       1.84096491    
   0.00000000       0.00000000       0.00000000       2.56078696       1.84096491    
  -1.00436401      -1.61872697      -0.00000000       2.56078696       1.84096491    
   0.00000000       0.00000000       0.00000000       2.68324471       1.82728744    
  -1.10500801      -1.55176699      -0.00000000       2.68324471       1.82728744    
  -1.15368605      -1.51592600      -0.00000000       2.68324471       1.82728744    
  -1.20120299      -1.47855902      -0.00000000       2.68324471       1.82728744    
 -0.952499986      -1.64977801      -0.00000000       2.44775176       1.85475814    
  -1.00436401      -1.61872697      -0.00000000       2.44775176       1.85475814    
   0.00000000       0.00000000       0.00000000       2.44775176       1.85475814    
 -0.899676025      -1.67916906      -0.00000000       2.44775176       1.85475814    
 -0.735987008      -1.75708497      -0.00000000       2.27303839       1.87876117    
 -0.791365981      -1.73284900      -0.00000000       2.27303839       1.87876117    
   0.00000000       0.00000000       0.00000000       2.27303839       1.87876117    
 -0.679867983      -1.77955198      -0.00000000       2.27303839       1.87876117    
   0.00000000       0.00000000       0.00000000       2.35075760       1.86763823    
 -0.791365981      -1.73284900      -0.00000000       2.35075760       1.86763823    
 -0.845947027      -1.70686805      -0.00000000       2.35075760       1.86763823    
 -0.899676025      -1.67916906      -0.00000000       2.35075760       1.86763823    
 -0.623063982      -1.80022705      -0.00000000       2.21484160       1.88762116    
 -0.679867983      -1.77955198      -0.00000000       2.21484160       1.88762116    
   0.00000000       0.00000000       0.00000000       2.21484160       1.88762116    
 -0.565632999      -1.81908906      -0.00000000       2.21484160       1.88762116    
 -0.390157014      -1.86461902      -0.00000000       2.14450788       1.89902079    
 -0.449120998      -1.85130095      -0.00000000       2.14450788       1.89902079    
   0.00000000       0.00000000       0.00000000       2.14450788       1.89902079    
 -0.330799997      -1.87605906      -0.00000000       2.14450788       1.89902079    
   0.00000000       0.00000000       0.00000000       2.17309403       1.89429009    
 -0.449120998      -1.85130095      -0.00000000       2.17309403       1.89429009    
 -0.507632971      -1.83611906      -0.00000000       2.17309403       1.89429009    
 -0.565632999      -1.81908906      -0.00000000       2.17309403       1.89429009    
 -0.271109998      -1.88560998      -0.00000000       2.12584662       1.90218866    
 -0.330799997      -1.87605906      -0.00000000       2.12584662       1.90218866    
   0.00000000       0.00000000       0.00000000       2.12584662       1.90218866    
 -0.211146995      -1.89326203      -0.00000000       2.12584662       1.90218866    
  -3.02249994E-02  -1.90476000      -0.00000000       2.11209607       1.90458930    
  -9.06440020E-02  -1.90284204      -0.00000000       2.11209607       1.90458930    
   0.00000000       0.00000000       0.00000000       2.11209607       1.90458930    
   3.02249994E-02  -1.90476000      -0.00000000       2.11209607       1.90458930    
   0.00000000       0.00000000       0.00000000       2.11608315       1.90388322    
  -9.06440020E-02  -1.90284204      -0.00000000       2.11608315       1.90388322    
 -0.150970995      -1.89900804      -0.00000000       2.11608315       1.90388322    
 -0.211146995      -1.89326203      -0.00000000       2.11608315       1.90388322    
   9.06440020E-02  -1.90284204      -0.00000000       2.11225033       1.90456653    
   3.02249994E-02  -1.90476000      -0.00000000       2.11225033       1.90456653    
   0.00000000       0.00000000       0.00000000       2.11225033       1.90456653    
  0.150970995      -1.89900804      -0.00000000       2.11225033       1.90456653    
  0.330799997      -1.87605906      -0.00000000       2.13027334       1.90147078    
  0.271109998      -1.88560998      -0.00000000       2.13027334       1.90147078    
   0.00000000       0.00000000       0.00000000       2.13027334       1.90147078    
  0.390157014      -1.86461902      -0.00000000       2.13027334       1.90147078    
   0.00000000       0.00000000       0.00000000       2.11738849       1.90367496    
  0.271109998      -1.88560998      -0.00000000       2.11738849       1.90367496    
  0.211146995      -1.89326203      -0.00000000       2.11738849       1.90367496    
  0.150970995      -1.89900804      -0.00000000       2.11738849       1.90367496    
  0.449120998      -1.85130095      -0.00000000       2.15209818       1.89780664    
  0.390157014      -1.86461902      -0.00000000       2.15209818       1.89780664    
   0.00000000       0.00000000       0.00000000       2.15209818       1.89780664    
  0.507632971      -1.83611906      -0.00000000       2.15209818       1.89780664    
  0.679867983      -1.77955198      -0.00000000       2.23170757       1.88509953    
  0.623063982      -1.80022705      -0.00000000       2.23170757       1.88509953    
   0.00000000       0.00000000       0.00000000       2.23170757       1.88509953    
  0.735987008      -1.75708497      -0.00000000       2.23170757       1.88509953    
   0.00000000       0.00000000       0.00000000       2.18456388       1.89250505    
  0.623063982      -1.80022705      -0.00000000       2.18456388       1.89250505    
  0.565632999      -1.81908906      -0.00000000       2.18456388       1.89250505    
  0.507632971      -1.83611906      -0.00000000       2.18456388       1.89250505    
  0.791365981      -1.73284900      -0.00000000       2.29638815       1.87545979    
  0.735987008      -1.75708497      -0.00000000       2.29638815       1.87545979    
   0.00000000       0.00000000       0.00000000       2.29638815       1.87545979    
  0.845947027      -1.70686805      -0.00000000       2.29638815       1.87545979    
   1.00436401      -1.61872697      -0.00000000       2.47884274       1.85101044    
  0.952499986      -1.64977801      -0.00000000       2.47884274       1.85101044    
   0.00000000       0.00000000       0.00000000       2.47884274       1.85101044    
   1.05521798      -1.58604598      -0.00000000       2.47884274       1.85101044    
   0.00000000       0.00000000       0.00000000       2.37905574       1.86391914    
  0.952499986      -1.64977801      -0.00000000       2.37905574       1.86391914    
  0.899676025      -1.67916906      -0.00000000       2.37905574       1.86391914    
  0.845947027      -1.70686805      -0.00000000       2.37905574       1.86391914    
   1.10500801      -1.55176699      -0.00000000       2.59192538       1.83755279    
   1.05521798      -1.58604598      -0.00000000       2.59192538       1.83755279    
   0.00000000       0.00000000       0.00000000       2.59192538       1.83755279    
   1.15368605      -1.51592600      -0.00000000       2.59192538       1.83755279    
   1.29255998      -1.39939702      -0.00000000       2.81454039       1.81396139    
   1.24750996      -1.43970299      -0.00000000       2.81454039       1.81396139    
   0.00000000       0.00000000       0.00000000       2.81454039       1.81396139    
   1.33631003      -1.35768199      -0.00000000       2.81454039       1.81396139    
   0.00000000       0.00000000       0.00000000       2.70936632       1.82469320    
   1.24750996      -1.43970299      -0.00000000       2.70936632       1.82469320    
   1.20120299      -1.47855902      -0.00000000       2.70936632       1.82469320    