 VARIABLES="X" "Y" "Z" "abs(p) (Pa)" "angle(p) (rad)"
ZONE N=    802,E =     800, F=FEPOINT, ET=QUADRILATERAL
   1.90499997       0.00000000      -0.00000000       774.639160     -0.666621923    
   1.90404105      -6.04420006E-02  -0.00000000       774.639160     -0.666621923    
   0.00000000       0.00000000       0.00000000       774.639160     -0.666621923    
   1.90404105       6.04420006E-02  -0.00000000       774.639160     -0.666621923    
   1.88967395      0.241159007      -0.00000000       773.661926     -0.666652799    
   1.89637399      0.181081995      -0.00000000       773.661926     -0.666652799    
   0.00000000       0.00000000       0.00000000       773.661926     -0.666652799    
   1.88107097      0.300992996      -0.00000000       773.661926     -0.666652799    
   0.00000000       0.00000000       0.00000000       774.491699     -0.666676879    
   1.89637399      0.181081995      -0.00000000       774.491699     -0.666676879    
   1.90116501      0.120823003      -0.00000000       774.491699     -0.666676879    
   1.90404105       6.04420006E-02  -0.00000000       774.491699     -0.666676879    
   1.87057400      0.360523999      -0.00000000       772.631775     -0.666828811    
   1.88107097      0.300992996      -0.00000000       772.631775     -0.666828811    
   0.00000000       0.00000000       0.00000000       772.631775     -0.666828811    
   1.85819399      0.419692010      -0.00000000       772.631775     -0.666828811    
   1.80988598      0.594424009      -0.00000000       775.588867     -0.671144128    
   1.82783401      0.536701024      -0.00000000       775.588867     -0.671144128    
   0.00000000       0.00000000       0.00000000       775.588867     -0.671144128    
   1.79011405      0.651548028      -0.00000000       775.588867     -0.671144128    
   0.00000000       0.00000000       0.00000000       773.002136     -0.668183744    
   1.82783401      0.536701024      -0.00000000       773.002136     -0.668183744    
   1.84394205      0.478437006      -0.00000000       773.002136     -0.668183744    
   1.85819399      0.419692010      -0.00000000       773.002136     -0.668183744    
   1.76854098      0.708016992      -0.00000000       781.519897     -0.676228046    
   1.79011405      0.651548028      -0.00000000       781.519897     -0.676228046    
   0.00000000       0.00000000       0.00000000       781.519897     -0.676228046    
   1.74518704      0.763773024      -0.00000000       781.519897     -0.676228046    
   1.66468298      0.926204979      -0.00000000       806.409729     -0.693547964    
   1.69323206      0.872922003      -0.00000000       806.409729     -0.693547964    
   0.00000000       0.00000000       0.00000000       806.409729     -0.693547964    
   1.63445795      0.978555024      -0.00000000       806.409729     -0.693547964    
   0.00000000       0.00000000       0.00000000       791.745972     -0.683766663    
   1.69323206      0.872922003      -0.00000000       791.745972     -0.683766663    
   1.72007501      0.818759024      -0.00000000       791.745972     -0.683766663    
   1.74518704      0.763773024      -0.00000000       791.745972     -0.683766663    
   1.60258806       1.02992105      -0.00000000       824.503479     -0.704604983    
   1.63445795      0.978555024      -0.00000000       824.503479     -0.704604983    
   0.00000000       0.00000000       0.00000000       824.503479     -0.704604983    
   1.56910396       1.08024895      -0.00000000       824.503479     -0.704604983    
   1.45931494       1.22450995      -0.00000000       859.023621     -0.723146379    
   1.49743104       1.17759299      -0.00000000       859.023621     -0.723146379    
   0.00000000       0.00000000       0.00000000       859.023621     -0.723146379    
   1.41972899       1.27019501      -0.00000000       859.023621     -0.723146379    
   0.00000000       0.00000000       0.00000000       843.691956     -0.715359330    
   1.49743104       1.17759299      -0.00000000       843.691956     -0.715359330    
   1.53403997       1.12949002      -0.00000000       843.691956     -0.715359330    
   1.56910396       1.08024895      -0.00000000       843.691956     -0.715359330    
   1.37871301       1.31459999      -0.00000000       852.847839     -0.718984723    
   1.41972899       1.27019501      -0.00000000       852.847839     -0.718984723    
   0.00000000       0.00000000       0.00000000       852.847839     -0.718984723    
   1.33631003       1.35768199      -0.00000000       852.847839     -0.718984723    
   1.20120299       1.47855902      -0.00000000       735.101074     -0.640226841    
   1.24750996       1.43970299      -0.00000000       735.101074     -0.640226841    
   0.00000000       0.00000000       0.00000000       735.101074     -0.640226841    
   1.15368605       1.51592600      -0.00000000       735.101074     -0.640226841    
   0.00000000       0.00000000       0.00000000       804.053955     -0.689617217    
   1.24750996       1.43970299      -0.00000000       804.053955     -0.689617217    
   1.29255998       1.39939702      -0.00000000       804.053955     -0.689617217    
   1.33631003       1.35768199      -0.00000000       804.053955     -0.689617217    
   1.10500801       1.55176699      -0.00000000       666.128052     -0.576911867    
   1.15368605       1.51592600      -0.00000000       666.128052     -0.576911867    
   0.00000000       0.00000000       0.00000000       666.128052     -0.576911867    
   1.05521798       1.58604598      -0.00000000       666.128052     -0.576911867    
  0.899676025       1.67916906      -0.00000000       549.940002     -0.411726654    
  0.952499986       1.64977801      -0.00000000       549.940002     -0.411726654    
   0.00000000       0.00000000       0.00000000       549.940002     -0.411726654    
  0.845947027       1.70686805      -0.00000000       549.940002     -0.411726654    
   0.00000000       0.00000000       0.00000000       603.368164     -0.500456214    
  0.952499986       1.64977801      -0.00000000       603.368164     -0.500456214    
   1.00436401       1.61872697      -0.00000000       603.368164     -0.500456214    
   1.05521798       1.58604598      -0.00000000       603.368164     -0.500456214    
  0.791365981       1.73284900      -0.00000000       507.047638     -0.311677992    
  0.845947027       1.70686805      -0.00000000       507.047638     -0.311677992    
   0.00000000       0.00000000       0.00000000       507.047638     -0.311677992    
  0.735987008       1.75708497      -0.00000000       507.047638     -0.311677992    
  0.565632999       1.81908906      -0.00000000       452.905426      -8.33037570E-02
  0.623063982       1.80022705      -0.00000000       452.905426      -8.33037570E-02
   0.00000000       0.00000000       0.00000000       452.905426      -8.33037570E-02
  0.507632971       1.83611906      -0.00000000       452.905426      -8.33037570E-02
   0.00000000       0.00000000       0.00000000       474.780762     -0.201483026    
  0.623063982       1.80022705      -0.00000000       474.780762     -0.201483026    
  0.679867983       1.77955198      -0.00000000       474.780762     -0.201483026    
  0.735987008       1.75708497      -0.00000000       474.780762     -0.201483026    
  0.449120998       1.85130095      -0.00000000       441.108154       4.01902273E-02
  0.507632971       1.83611906      -0.00000000       441.108154       4.01902273E-02
   0.00000000       0.00000000       0.00000000       441.108154       4.01902273E-02
  0.390157014       1.86461902      -0.00000000       441.108154       4.01902273E-02
  0.211146995       1.89326203      -0.00000000       445.513306      0.286316991    
  0.271109998       1.88560998      -0.00000000       445.513306      0.286316991    
   0.00000000       0.00000000       0.00000000       445.513306      0.286316991    
  0.150970995       1.89900804      -0.00000000       445.513306      0.286316991    
   0.00000000       0.00000000       0.00000000       438.884674      0.164650887    
  0.271109998       1.88560998      -0.00000000       438.884674      0.164650887    
  0.330799997       1.87605906      -0.00000000       438.884674      0.164650887    
  0.390157014       1.86461902      -0.00000000       438.884674      0.164650887    
   9.06440020E-02   1.90284204      -0.00000000       460.237152      0.400154352    
  0.150970995       1.89900804      -0.00000000       460.237152      0.400154352    
   0.00000000       0.00000000       0.00000000       460.237152      0.400154352    
   3.02249994E-02   1.90476000      -0.00000000       460.237152      0.400154352    
 -0.150970995       1.89900804      -0.00000000       510.624542      0.594268560    
  -9.06440020E-02   1.90284204      -0.00000000       510.624542      0.594268560    
   0.00000000       0.00000000       0.00000000       510.624542      0.594268560    
 -0.211146995       1.89326203      -0.00000000       510.624542      0.594268560    
   0.00000000       0.00000000       0.00000000       482.234344      0.503198266    
  -9.06440020E-02   1.90284204      -0.00000000       482.234344      0.503198266    
  -3.02249994E-02   1.90476000      -0.00000000       482.234344      0.503198266    
   3.02249994E-02   1.90476000      -0.00000000       482.234344      0.503198266    
 -0.271109998       1.88560998      -0.00000000       544.556396      0.672915161    
 -0.211146995       1.89326203      -0.00000000       544.556396      0.672915161    
   0.00000000       0.00000000       0.00000000       544.556396      0.672915161    
 -0.330799997       1.87605906      -0.00000000       544.556396      0.672915161    
 -0.507632971       1.83611906      -0.00000000       627.669739      0.794844449    
 -0.449120998       1.85130095      -0.00000000       627.669739      0.794844449    
   0.00000000       0.00000000       0.00000000       627.669739      0.794844449    
 -0.565632999       1.81908906      -0.00000000       627.669739      0.794844449    
   0.00000000       0.00000000       0.00000000       583.437256      0.739387274    
 -0.449120998       1.85130095      -0.00000000       583.437256      0.739387274    
 -0.390157014       1.86461902      -0.00000000       583.437256      0.739387274    
 -0.330799997       1.87605906      -0.00000000       583.437256      0.739387274    
 -0.623063982       1.80022705      -0.00000000       677.124939      0.840568781    
 -0.565632999       1.81908906      -0.00000000       677.124939      0.840568781    
   0.00000000       0.00000000       0.00000000       677.124939      0.840568781    
 -0.679867983       1.77955198      -0.00000000       677.124939      0.840568781    
 -0.845947027       1.70686805      -0.00000000       794.384277      0.908356905    
 -0.791365981       1.73284900      -0.00000000       794.384277      0.908356905    
   0.00000000       0.00000000       0.00000000       794.384277      0.908356905    
 -0.899676025       1.67916906      -0.00000000       794.384277      0.908356905    
   0.00000000       0.00000000       0.00000000       732.510620      0.878032446    
 -0.791365981       1.73284900      -0.00000000       732.510620      0.878032446    
 -0.735987008       1.75708497      -0.00000000       732.510620      0.878032446    
 -0.679867983       1.77955198      -0.00000000       732.510620      0.878032446    
 -0.952499986       1.64977801      -0.00000000       862.409424      0.932531416    
 -0.899676025       1.67916906      -0.00000000       862.409424      0.932531416    
   0.00000000       0.00000000       0.00000000       862.409424      0.932531416    
  -1.00436401       1.61872697      -0.00000000       862.409424      0.932531416    
  -1.15368605       1.51592600      -0.00000000       1009.79974      0.965684354    
  -1.10500801       1.55176699      -0.00000000       1009.79974      0.965684354    
   0.00000000       0.00000000       0.00000000       1009.79974      0.965684354    
  -1.20120299       1.47855902      -0.00000000       1009.79974      0.965684354    
   0.00000000       0.00000000       0.00000000       935.164612      0.951383293    
  -1.10500801       1.55176699      -0.00000000       935.164612      0.951383293    
  -1.05521798       1.58604598      -0.00000000       935.164612      0.951383293    
  -1.00436401       1.61872697      -0.00000000       935.164612      0.951383293    
  -1.24750996       1.43970299      -0.00000000       1080.80396      0.976353526    
  -1.20120299       1.47855902      -0.00000000       1080.80396      0.976353526    
   0.00000000       0.00000000       0.00000000       1080.80396      0.976353526    
  -1.29255998       1.39939702      -0.00000000       1080.80396      0.976353526    
  -1.41972899       1.27019501      -0.00000000       1134.76404      0.991058767    
  -1.37871301       1.31459999      -0.00000000       1134.76404      0.991058767    
   0.00000000       0.00000000       0.00000000       1134.76404      0.991058767    
  -1.45931494       1.22450995      -0.00000000       1134.76404      0.991058767    
   0.00000000       0.00000000       0.00000000       1129.84680      0.984398007    
  -1.37871301       1.31459999      -0.00000000       1129.84680      0.984398007    
  -1.33631003       1.35768199      -0.00000000       1129.84680      0.984398007    
  -1.29255998       1.39939702      -0.00000000       1129.84680      0.984398007    
  -1.49743104       1.17759299      -0.00000000       1116.88953      0.996784866    
  -1.45931494       1.22450995      -0.00000000       1116.88953      0.996784866    
   0.00000000       0.00000000       0.00000000       1116.88953      0.996784866    
  -1.53403997       1.12949002      -0.00000000       1116.88953      0.996784866    
  -1.63445795      0.978555024      -0.00000000       1076.17480       1.00560319    
  -1.60258806       1.02992105      -0.00000000       1076.17480       1.00560319    
   0.00000000       0.00000000       0.00000000       1076.17480       1.00560319    
  -1.66468298      0.926204979      -0.00000000       1076.17480       1.00560319    
   0.00000000       0.00000000       0.00000000       1095.55432       1.00160658    
  -1.60258806       1.02992105      -0.00000000       1095.55432       1.00160658    
  -1.56910396       1.08024895      -0.00000000       1095.55432       1.00160658    
  -1.53403997       1.12949002      -0.00000000       1095.55432       1.00160658    
  -1.69323206      0.872922003      -0.00000000       1061.19995       1.00887787    
  -1.66468298      0.926204979      -0.00000000       1061.19995       1.00887787    
   0.00000000       0.00000000       0.00000000       1061.19995       1.00887787    
  -1.72007501      0.818759024      -0.00000000       1061.19995       1.00887787    
  -1.79011405      0.651548028      -0.00000000       1045.65771       1.01352453    
  -1.76854098      0.708016992      -0.00000000       1045.65771       1.01352453    
   0.00000000       0.00000000       0.00000000       1045.65771       1.01352453    
  -1.80988598      0.594424009      -0.00000000       1045.65771       1.01352453    
   0.00000000       0.00000000       0.00000000       1051.23840       1.01149714    
  -1.76854098      0.708016992      -0.00000000       1051.23840       1.01149714    
  -1.74518704      0.763773024      -0.00000000       1051.23840       1.01149714    
  -1.72007501      0.818759024      -0.00000000       1051.23840       1.01149714    
  -1.82783401      0.536701024      -0.00000000       1043.47571       1.01507306    
  -1.80988598      0.594424009      -0.00000000       1043.47571       1.01507306    
   0.00000000       0.00000000       0.00000000       1043.47571       1.01507306    
  -1.84394205      0.478437006      -0.00000000       1043.47571       1.01507306    
  -1.88107097      0.300992996      -0.00000000       1045.12048       1.01708305    
  -1.87057400      0.360523999      -0.00000000       1045.12048       1.01708305    
   0.00000000       0.00000000       0.00000000       1045.12048       1.01708305    
  -1.88967395      0.241159007      -0.00000000       1045.12048       1.01708305    
   0.00000000       0.00000000       0.00000000       1043.70581       1.01625001    
  -1.87057400      0.360523999      -0.00000000       1043.70581       1.01625001    
  -1.85819399      0.419692010      -0.00000000       1043.70581       1.01625001    
  -1.84394205      0.478437006      -0.00000000       1043.70581       1.01625001    
  -1.89637399      0.181081995      -0.00000000       1046.39197       1.01760852    
  -1.88967395      0.241159007      -0.00000000       1046.39197       1.01760852    
   0.00000000       0.00000000       0.00000000       1046.39197       1.01760852    
  -1.90116501      0.120823003      -0.00000000       1046.39197       1.01760852    
  -1.90404105      -6.04420006E-02  -0.00000000       1047.30896       1.01783168    
  -1.90499997       0.00000000      -0.00000000       1047.30896       1.01783168    
   0.00000000       0.00000000       0.00000000       1047.30896       1.01783168    
  -1.90116501     -0.120823003      -0.00000000       1047.30896       1.01783168    
   0.00000000       0.00000000       0.00000000       1047.13428       1.01785111    
  -1.90499997       0.00000000      -0.00000000       1047.13428       1.01785111    
  -1.90404105       6.04420006E-02  -0.00000000       1047.13428       1.01785111    
  -1.90116501      0.120823003      -0.00000000       1047.13428       1.01785111    
  -1.89637399     -0.181081995      -0.00000000       1046.82214       1.01754558    
  -1.90116501     -0.120823003      -0.00000000       1046.82214       1.01754558    
   0.00000000       0.00000000       0.00000000       1046.82214       1.01754558    
  -1.88967395     -0.241159007      -0.00000000       1046.82214       1.01754558    
  -1.85819399     -0.419692010      -0.00000000       1045.10840       1.01611137    
  -1.87057400     -0.360523999      -0.00000000       1045.10840       1.01611137    
   0.00000000       0.00000000       0.00000000       1045.10840       1.01611137    
  -1.84394205     -0.478437006      -0.00000000       1045.10840       1.01611137    
   0.00000000       0.00000000       0.00000000       1045.84998       1.01697803    
  -1.87057400     -0.360523999      -0.00000000       1045.84998       1.01697803    
  -1.88107097     -0.300992996      -0.00000000       1045.84998       1.01697803    
  -1.88967395     -0.241159007      -0.00000000       1045.84998       1.01697803    
  -1.82783401     -0.536701024      -0.00000000       1046.20984       1.01492512    
  -1.84394205     -0.478437006      -0.00000000       1046.20984       1.01492512    
   0.00000000       0.00000000       0.00000000       1046.20984       1.01492512    
  -1.80988598     -0.594424009      -0.00000000       1046.20984       1.01492512    
  -1.74518704     -0.763773024      -0.00000000       1056.50525       1.01130307    
  -1.76854098     -0.708016992      -0.00000000       1056.50525       1.01130307    
   0.00000000       0.00000000       0.00000000       1056.50525       1.01130307    
  -1.72007501     -0.818759024      -0.00000000       1056.50525       1.01130307    
   0.00000000       0.00000000       0.00000000       1049.64368       1.01336348    
  -1.76854098     -0.708016992      -0.00000000       1049.64368       1.01336348    
  -1.79011405     -0.651548028      -0.00000000       1049.64368       1.01336348    
  -1.80988598     -0.594424009      -0.00000000       1049.64368       1.01336348    
  -1.69323206     -0.872922003      -0.00000000       1067.81006       1.00866663    
  -1.72007501     -0.818759024      -0.00000000       1067.81006       1.00866663    
   0.00000000       0.00000000       0.00000000       1067.81006       1.00866663    
  -1.66468298     -0.926204979      -0.00000000       1067.81006       1.00866663    
  -1.56910396      -1.08024895      -0.00000000       1102.66211       1.00138259    
  -1.60258806      -1.02992105      -0.00000000       1102.66211       1.00138259    
   0.00000000       0.00000000       0.00000000       1102.66211       1.00138259    
  -1.53403997      -1.12949002      -0.00000000       1102.66211       1.00138259    
   0.00000000       0.00000000       0.00000000       1083.56824       1.00539827    
  -1.60258806      -1.02992105      -0.00000000       1083.56824       1.00539827    
  -1.63445795     -0.978555024      -0.00000000       1083.56824       1.00539827    
  -1.66468298     -0.926204979      -0.00000000       1083.56824       1.00539827    
  -1.49743104      -1.17759299      -0.00000000       1122.64600      0.996509194    
  -1.53403997      -1.12949002      -0.00000000       1122.64600      0.996509194    
   0.00000000       0.00000000       0.00000000       1122.64600      0.996509194    
  -1.45931494      -1.22450995      -0.00000000       1122.64600      0.996509194    
  -1.33631003      -1.35768199      -0.00000000       1130.89539      0.983785331    
  -1.37871301      -1.31459999      -0.00000000       1130.89539      0.983785331    
   0.00000000       0.00000000       0.00000000       1130.89539      0.983785331    
  -1.29255998      -1.39939702      -0.00000000       1130.89539      0.983785331    
   0.00000000       0.00000000       0.00000000       1138.12170      0.990666986    
  -1.37871301      -1.31459999      -0.00000000       1138.12170      0.990666986    
  -1.41972899      -1.27019501      -0.00000000       1138.12170      0.990666986    
  -1.45931494      -1.22450995      -0.00000000       1138.12170      0.990666986    
  -1.24750996      -1.43970299      -0.00000000       1079.33301      0.975395024    
  -1.29255998      -1.39939702      -0.00000000       1079.33301      0.975395024    
   0.00000000       0.00000000       0.00000000       1079.33301      0.975395024    
  -1.20120299      -1.47855902      -0.00000000       1079.33301      0.975395024    
  -1.05521798      -1.58604598      -0.00000000       928.778015      0.949390233    
  -1.10500801      -1.55176699      -0.00000000       928.778015      0.949390233    
   0.00000000       0.00000000       0.00000000       928.778015      0.949390233    
  -1.00436401      -1.61872697      -0.00000000       928.778015      0.949390233    
   0.00000000       0.00000000       0.00000000       1005.45636      0.964280427    
  -1.10500801      -1.55176699      -0.00000000       1005.45636      0.964280427    
  -1.15368605      -1.51592600      -0.00000000       1005.45636      0.964280427    
  -1.20120299      -1.47855902      -0.00000000       1005.45636      0.964280427    
 -0.952499986      -1.64977801      -0.00000000       855.100891      0.929927111    
  -1.00436401      -1.61872697      -0.00000000       855.100891      0.929927111    
   0.00000000       0.00000000       0.00000000       855.100891      0.929927111    
 -0.899676025      -1.67916906      -0.00000000       855.100891      0.929927111    
 -0.735987008      -1.75708497      -0.00000000       726.302246      0.874286354    
 -0.791365981      -1.73284900      -0.00000000       726.302246      0.874286354    
   0.00000000       0.00000000       0.00000000       726.302246      0.874286354    
 -0.679867983      -1.77955198      -0.00000000       726.302246      0.874286354    
   0.00000000       0.00000000       0.00000000       787.306091      0.905186117    
 -0.791365981      -1.73284900      -0.00000000       787.306091      0.905186117    
 -0.845947027      -1.70686805      -0.00000000       787.306091      0.905186117    
 -0.899676025      -1.67916906      -0.00000000       787.306091      0.905186117    
 -0.623063982      -1.80022705      -0.00000000       671.759644      0.836147130    
 -0.679867983      -1.77955198      -0.00000000       671.759644      0.836147130    
   0.00000000       0.00000000       0.00000000       671.759644      0.836147130    
 -0.565632999      -1.81908906      -0.00000000       671.759644      0.836147130    
 -0.390157014      -1.86461902      -0.00000000       579.709229      0.733209133    
 -0.449120998      -1.85130095      -0.00000000       579.709229      0.733209133    
   0.00000000       0.00000000       0.00000000       579.709229      0.733209133    
 -0.330799997      -1.87605906      -0.00000000       579.709229      0.733209133    
   0.00000000       0.00000000       0.00000000       623.107422      0.789628565    
 -0.449120998      -1.85130095      -0.00000000       623.107422      0.789628565    
 -0.507632971      -1.83611906      -0.00000000       623.107422      0.789628565    
 -0.565632999      -1.81908906      -0.00000000       623.107422      0.789628565    
 -0.271109998      -1.88560998      -0.00000000       541.359436      0.665827751    
 -0.330799997      -1.87605906      -0.00000000       541.359436      0.665827751    
   0.00000000       0.00000000       0.00000000       541.359436      0.665827751    
 -0.211146995      -1.89326203      -0.00000000       541.359436      0.665827751    
  -3.02249994E-02  -1.90476000      -0.00000000       479.887695      0.494352400    
  -9.06440020E-02  -1.90284204      -0.00000000       479.887695      0.494352400    
   0.00000000       0.00000000       0.00000000       479.887695      0.494352400    
   3.02249994E-02  -1.90476000      -0.00000000       479.887695      0.494352400    
   0.00000000       0.00000000       0.00000000       507.816925      0.586266637    
  -9.06440020E-02  -1.90284204      -0.00000000       507.816925      0.586266637    
 -0.150970995      -1.89900804      -0.00000000       507.816925      0.586266637    
 -0.211146995      -1.89326203      -0.00000000       507.816925      0.586266637    
   9.06440020E-02  -1.90284204      -0.00000000       458.407684      0.390280664    
   3.02249994E-02  -1.90476000      -0.00000000       458.407684      0.390280664    
   0.00000000       0.00000000       0.00000000       458.407684      0.390280664    
  0.150970995      -1.89900804      -0.00000000       458.407684      0.390280664    
  0.330799997      -1.87605906      -0.00000000       438.216400      0.153040513    
  0.271109998      -1.88560998      -0.00000000       438.216400      0.153040513    
   0.00000000       0.00000000       0.00000000       438.216400      0.153040513    
  0.390157014      -1.86461902      -0.00000000       438.216400      0.153040513    
   0.00000000       0.00000000       0.00000000       444.209229      0.275397837    
  0.271109998      -1.88560998      -0.00000000       444.209229      0.275397837    
  0.211146995      -1.89326203      -0.00000000       444.209229      0.275397837    
  0.150970995      -1.89900804      -0.00000000       444.209229      0.275397837    
  0.449120998      -1.85130095      -0.00000000       441.292572       2.79823560E-02
  0.390157014      -1.86461902      -0.00000000       441.292572       2.79823560E-02
   0.00000000       0.00000000       0.00000000       441.292572       2.79823560E-02
  0.507632971      -1.83611906      -0.00000000       441.292572       2.79823560E-02
  0.679867983      -1.77955198      -0.00000000       477.435791     -0.214176297    
  0.623063982      -1.80022705      -0.00000000       477.435791     -0.214176297    
   0.00000000       0.00000000       0.00000000       477.435791     -0.214176297    
  0.735987008      -1.75708497      -0.00000000       477.435791     -0.214176297    
   0.00000000       0.00000000       0.00000000       454.308014      -9.60287973E-02
  0.623063982      -1.80022705      -0.00000000       454.308014      -9.60287973E-02
  0.565632999      -1.81908906      -0.00000000       454.308014      -9.60287973E-02
  0.507632971      -1.83611906      -0.00000000       454.308014      -9.60287973E-02
  0.791365981      -1.73284900      -0.00000000       511.004333     -0.323849887    
  0.735987008      -1.75708497      -0.00000000       511.004333     -0.323849887    
   0.00000000       0.00000000       0.00000000       511.004333     -0.323849887    
  0.845947027      -1.70686805      -0.00000000       511.004333     -0.323849887    
   1.00436401      -1.61872697      -0.00000000       609.346558     -0.510000527    
  0.952499986      -1.64977801      -0.00000000       609.346558     -0.510000527    
   0.00000000       0.00000000       0.00000000       609.346558     -0.510000527    
   1.05521798      -1.58604598      -0.00000000       609.346558     -0.510000527    
   0.00000000       0.00000000       0.00000000       555.184753     -0.422985405    
  0.952499986      -1.64977801      -0.00000000       555.184753     -0.422985405    
  0.899676025      -1.67916906      -0.00000000       555.184753     -0.422985405    
  0.845947027      -1.70686805      -0.00000000       555.184753     -0.422985405    
   1.10500801      -1.55176699      -0.00000000       671.734619     -0.583978474    
   1.05521798      -1.58604598      -0.00000000       671.734619     -0.583978474    
   0.00000000       0.00000000       0.00000000       671.734619     -0.583978474    
   1.15368605      -1.51592600      -0.00000000       671.734619     -0.583978474    
   1.29255998      -1.39939702      -0.00000000       805.560669     -0.691795051    
   1.24750996      -1.43970299      -0.00000000       805.560669     -0.691795051    
   0.00000000       0.00000000       0.00000000       805.560669     -0.691795051    
   1.33631003      -1.35768199      -0.00000000       805.560669     -0.691795051    
   0.00000000       0.00000000       0.00000000       739.150330     -0.644653380    
   1.24750996      -1.43970299      -0.00000000       739.150330     -0.644653380    
   1.20120299      -1.47855902      -0.00000000       739.150330     -0.644653380    