 VARIABLES="X" "Y" "Z" "abs(p) (Pa)" "angle(p) (rad)"
ZONE N=    802,E =     800, F=FEPOINT, ET=QUADRILATERAL
   1.90499997       0.00000000      -0.00000000       1.51535022       1.47151542    
   1.90404105      -6.04420006E-02  -0.00000000       1.51535022       1.47151542    
   0.00000000       0.00000000       0.00000000       1.51535022       1.47151542    
   1.90404105       6.04420006E-02  -0.00000000       1.51535022       1.47151542    
   1.88967395      0.241159007      -0.00000000       90.9071808       1.57958257    
   1.89637399      0.181081995      -0.00000000       90.9071808       1.57958257    
   0.00000000       0.00000000       0.00000000       90.9071808       1.57958257    
   1.88107097      0.300992996      -0.00000000       90.9071808       1.57958257    
   0.00000000       0.00000000       0.00000000       45.9992828       1.57836521    
   1.89637399      0.181081995      -0.00000000       45.9992828       1.57836521    
   1.90116501      0.120823003      -0.00000000       45.9992828       1.57836521    
   1.90404105       6.04420006E-02  -0.00000000       45.9992828       1.57836521    
   1.87057400      0.360523999      -0.00000000       136.216431       1.57961881    
   1.88107097      0.300992996      -0.00000000       136.216431       1.57961881    
   0.00000000       0.00000000       0.00000000       136.216431       1.57961881    
   1.85819399      0.419692010      -0.00000000       136.216431       1.57961881    
   1.80988598      0.594424009      -0.00000000       230.917725       1.57738650    
   1.82783401      0.536701024      -0.00000000       230.917725       1.57738650    
   0.00000000       0.00000000       0.00000000       230.917725       1.57738650    
   1.79011405      0.651548028      -0.00000000       230.917725       1.57738650    
   0.00000000       0.00000000       0.00000000       182.606781       1.57888782    
   1.82783401      0.536701024      -0.00000000       182.606781       1.57888782    
   1.84394205      0.478437006      -0.00000000       182.606781       1.57888782    
   1.85819399      0.419692010      -0.00000000       182.606781       1.57888782    
   1.76854098      0.708016992      -0.00000000       281.940765       1.57512593    
   1.79011405      0.651548028      -0.00000000       281.940765       1.57512593    
   0.00000000       0.00000000       0.00000000       281.940765       1.57512593    
   1.74518704      0.763773024      -0.00000000       281.940765       1.57512593    
   1.66468298      0.926204979      -0.00000000       395.477661       1.56850040    
   1.69323206      0.872922003      -0.00000000       395.477661       1.56850040    
   0.00000000       0.00000000       0.00000000       395.477661       1.56850040    
   1.63445795      0.978555024      -0.00000000       395.477661       1.56850040    
   0.00000000       0.00000000       0.00000000       336.681671       1.57208967    
   1.69323206      0.872922003      -0.00000000       336.681671       1.57208967    
   1.72007501      0.818759024      -0.00000000       336.681671       1.57208967    
   1.74518704      0.763773024      -0.00000000       336.681671       1.57208967    
   1.60258806       1.02992105      -0.00000000       457.593231       1.56461477    
   1.63445795      0.978555024      -0.00000000       457.593231       1.56461477    
   0.00000000       0.00000000       0.00000000       457.593231       1.56461477    
   1.56910396       1.08024895      -0.00000000       457.593231       1.56461477    
   1.45931494       1.22450995      -0.00000000       580.040527       1.55794990    
   1.49743104       1.17759299      -0.00000000       580.040527       1.55794990    
   0.00000000       0.00000000       0.00000000       580.040527       1.55794990    
   1.41972899       1.27019501      -0.00000000       580.040527       1.55794990    
   0.00000000       0.00000000       0.00000000       520.493164       1.56092227    
   1.49743104       1.17759299      -0.00000000       520.493164       1.56092227    
   1.53403997       1.12949002      -0.00000000       520.493164       1.56092227    
   1.56910396       1.08024895      -0.00000000       520.493164       1.56092227    
   1.37871301       1.31459999      -0.00000000       621.429504       1.55781221    
   1.41972899       1.27019501      -0.00000000       621.429504       1.55781221    
   0.00000000       0.00000000       0.00000000       621.429504       1.55781221    
   1.33631003       1.35768199      -0.00000000       621.429504       1.55781221    
   1.20120299       1.47855902      -0.00000000       613.554993       1.57090747    
   1.24750996       1.43970299      -0.00000000       613.554993       1.57090747    
   0.00000000       0.00000000       0.00000000       613.554993       1.57090747    
   1.15368605       1.51592600      -0.00000000       613.554993       1.57090747    
   0.00000000       0.00000000       0.00000000       626.930298       1.56299925    
   1.24750996       1.43970299      -0.00000000       626.930298       1.56299925    
   1.29255998       1.39939702      -0.00000000       626.930298       1.56299925    
   1.33631003       1.35768199      -0.00000000       626.930298       1.56299925    
   1.10500801       1.55176699      -0.00000000       597.202026       1.57910502    
   1.15368605       1.51592600      -0.00000000       597.202026       1.57910502    
   0.00000000       0.00000000       0.00000000       597.202026       1.57910502    
   1.05521798       1.58604598      -0.00000000       597.202026       1.57910502    
  0.899676025       1.67916906      -0.00000000       571.622253       1.59349346    
  0.952499986       1.64977801      -0.00000000       571.622253       1.59349346    
   0.00000000       0.00000000       0.00000000       571.622253       1.59349346    
  0.845947027       1.70686805      -0.00000000       571.622253       1.59349346    
   0.00000000       0.00000000       0.00000000       582.405273       1.58682501    
  0.952499986       1.64977801      -0.00000000       582.405273       1.58682501    
   1.00436401       1.61872697      -0.00000000       582.405273       1.58682501    
   1.05521798       1.58604598      -0.00000000       582.405273       1.58682501    
  0.791365981       1.73284900      -0.00000000       564.826660       1.59895420    
  0.845947027       1.70686805      -0.00000000       564.826660       1.59895420    
   0.00000000       0.00000000       0.00000000       564.826660       1.59895420    
  0.735987008       1.75708497      -0.00000000       564.826660       1.59895420    
  0.565632999       1.81908906      -0.00000000       561.328430       1.60616839    
  0.623063982       1.80022705      -0.00000000       561.328430       1.60616839    
   0.00000000       0.00000000       0.00000000       561.328430       1.60616839    
  0.507632971       1.83611906      -0.00000000       561.328430       1.60616839    
   0.00000000       0.00000000       0.00000000       561.683960       1.60313547    
  0.623063982       1.80022705      -0.00000000       561.683960       1.60313547    
  0.679867983       1.77955198      -0.00000000       561.683960       1.60313547    
  0.735987008       1.75708497      -0.00000000       561.683960       1.60313547    
  0.449120998       1.85130095      -0.00000000       562.832886       1.60824096    
  0.507632971       1.83611906      -0.00000000       562.832886       1.60824096    
   0.00000000       0.00000000       0.00000000       562.832886       1.60824096    
  0.390157014       1.86461902      -0.00000000       562.832886       1.60824096    
  0.211146995       1.89326203      -0.00000000       567.306885       1.61034358    
  0.271109998       1.88560998      -0.00000000       567.306885       1.61034358    
   0.00000000       0.00000000       0.00000000       567.306885       1.61034358    
  0.150970995       1.89900804      -0.00000000       567.306885       1.61034358    
   0.00000000       0.00000000       0.00000000       565.192200       1.60955048    
  0.271109998       1.88560998      -0.00000000       565.192200       1.60955048    
  0.330799997       1.87605906      -0.00000000       565.192200       1.60955048    
  0.390157014       1.86461902      -0.00000000       565.192200       1.60955048    
   9.06440020E-02   1.90284204      -0.00000000       569.017395       1.61065197    
  0.150970995       1.89900804      -0.00000000       569.017395       1.61065197    
   0.00000000       0.00000000       0.00000000       569.017395       1.61065197    
   3.02249994E-02   1.90476000      -0.00000000       569.017395       1.61065197    
 -0.150970995       1.89900804      -0.00000000       569.879456       1.61015570    
  -9.06440020E-02   1.90284204      -0.00000000       569.879456       1.61015570    
   0.00000000       0.00000000       0.00000000       569.879456       1.61015570    
 -0.211146995       1.89326203      -0.00000000       569.879456       1.61015570    
   0.00000000       0.00000000       0.00000000       569.827576       1.61059713    
  -9.06440020E-02   1.90284204      -0.00000000       569.827576       1.61059713    
  -3.02249994E-02   1.90476000      -0.00000000       569.827576       1.61059713    
   3.02249994E-02   1.90476000      -0.00000000       569.827576       1.61059713    
 -0.271109998       1.88560998      -0.00000000       569.491638       1.60924184    
 -0.211146995       1.89326203      -0.00000000       569.491638       1.60924184    
   0.00000000       0.00000000       0.00000000       569.491638       1.60924184    
 -0.330799997       1.87605906      -0.00000000       569.491638       1.60924184    
 -0.507632971       1.83611906      -0.00000000       570.035156       1.60550117    
 -0.449120998       1.85130095      -0.00000000       570.035156       1.60550117    
   0.00000000       0.00000000       0.00000000       570.035156       1.60550117    
 -0.565632999       1.81908906      -0.00000000       570.035156       1.60550117    
   0.00000000       0.00000000       0.00000000       569.169739       1.60776579    
 -0.449120998       1.85130095      -0.00000000       569.169739       1.60776579    
 -0.390157014       1.86461902      -0.00000000       569.169739       1.60776579    
 -0.330799997       1.87605906      -0.00000000       569.169739       1.60776579    
 -0.623063982       1.80022705      -0.00000000       572.953308       1.60227573    
 -0.565632999       1.81908906      -0.00000000       572.953308       1.60227573    
   0.00000000       0.00000000       0.00000000       572.953308       1.60227573    
 -0.679867983       1.77955198      -0.00000000       572.953308       1.60227573    
 -0.845947027       1.70686805      -0.00000000       588.149780       1.59242487    
 -0.791365981       1.73284900      -0.00000000       588.149780       1.59242487    
   0.00000000       0.00000000       0.00000000       588.149780       1.59242487    
 -0.899676025       1.67916906      -0.00000000       588.149780       1.59242487    
   0.00000000       0.00000000       0.00000000       578.674011       1.59795916    
 -0.791365981       1.73284900      -0.00000000       578.674011       1.59795916    
 -0.735987008       1.75708497      -0.00000000       578.674011       1.59795916    
 -0.679867983       1.77955198      -0.00000000       578.674011       1.59795916    
 -0.952499986       1.64977801      -0.00000000       601.528503       1.58579195    
 -0.899676025       1.67916906      -0.00000000       601.528503       1.58579195    
   0.00000000       0.00000000       0.00000000       601.528503       1.58579195    
  -1.00436401       1.61872697      -0.00000000       601.528503       1.58579195    
  -1.15368605       1.51592600      -0.00000000       635.268066       1.57043481    
  -1.10500801       1.55176699      -0.00000000       635.268066       1.57043481    
   0.00000000       0.00000000       0.00000000       635.268066       1.57043481    
  -1.20120299       1.47855902      -0.00000000       635.268066       1.57043481    
   0.00000000       0.00000000       0.00000000       618.109192       1.57828224    
  -1.10500801       1.55176699      -0.00000000       618.109192       1.57828224    
  -1.05521798       1.58604598      -0.00000000       618.109192       1.57828224    
  -1.00436401       1.61872697      -0.00000000       618.109192       1.57828224    
  -1.24750996       1.43970299      -0.00000000       648.633728       1.56290984    
  -1.20120299       1.47855902      -0.00000000       648.633728       1.56290984    
   0.00000000       0.00000000       0.00000000       648.633728       1.56290984    
  -1.29255998       1.39939702      -0.00000000       648.633728       1.56290984    
  -1.41972899       1.27019501      -0.00000000       599.824646       1.55828369    
  -1.37871301       1.31459999      -0.00000000       599.824646       1.55828369    
   0.00000000       0.00000000       0.00000000       599.824646       1.55828369    
  -1.45931494       1.22450995      -0.00000000       599.824646       1.55828369    
   0.00000000       0.00000000       0.00000000       642.846497       1.55794895    
  -1.37871301       1.31459999      -0.00000000       642.846497       1.55794895    
  -1.33631003       1.35768199      -0.00000000       642.846497       1.55794895    
  -1.29255998       1.39939702      -0.00000000       642.846497       1.55794895    
  -1.49743104       1.17759299      -0.00000000       537.570312       1.56162107    
  -1.45931494       1.22450995      -0.00000000       537.570312       1.56162107    
   0.00000000       0.00000000       0.00000000       537.570312       1.56162107    
  -1.53403997       1.12949002      -0.00000000       537.570312       1.56162107    
  -1.63445795      0.978555024      -0.00000000       409.388214       1.57000506    
  -1.60258806       1.02992105      -0.00000000       409.388214       1.57000506    
   0.00000000       0.00000000       0.00000000       409.388214       1.57000506    
  -1.66468298      0.926204979      -0.00000000       409.388214       1.57000506    
   0.00000000       0.00000000       0.00000000       472.584381       1.56572509    
  -1.60258806       1.02992105      -0.00000000       472.584381       1.56572509    
  -1.56910396       1.08024895      -0.00000000       472.584381       1.56572509    
  -1.53403997       1.12949002      -0.00000000       472.584381       1.56572509    
  -1.69323206      0.872922003      -0.00000000       350.694672       1.57387805    
  -1.66468298      0.926204979      -0.00000000       350.694672       1.57387805    
   0.00000000       0.00000000       0.00000000       350.694672       1.57387805    
  -1.72007501      0.818759024      -0.00000000       350.694672       1.57387805    
  -1.79011405      0.651548028      -0.00000000       246.261292       1.57958221    
  -1.76854098      0.708016992      -0.00000000       246.261292       1.57958221    
   0.00000000       0.00000000       0.00000000       246.261292       1.57958221    
  -1.80988598      0.594424009      -0.00000000       246.261292       1.57958221    
   0.00000000       0.00000000       0.00000000       296.524048       1.57713282    
  -1.76854098      0.708016992      -0.00000000       296.524048       1.57713282    
  -1.74518704      0.763773024      -0.00000000       296.524048       1.57713282    
  -1.72007501      0.818759024      -0.00000000       296.524048       1.57713282    
  -1.82783401      0.536701024      -0.00000000       198.920059       1.58123100    
  -1.80988598      0.594424009      -0.00000000       198.920059       1.58123100    
   0.00000000       0.00000000       0.00000000       198.920059       1.58123100    
  -1.84394205      0.478437006      -0.00000000       198.920059       1.58123100    
  -1.88107097      0.300992996      -0.00000000       108.717232       1.58278573    
  -1.87057400      0.360523999      -0.00000000       108.717232       1.58278573    
   0.00000000       0.00000000       0.00000000       108.717232       1.58278573    
  -1.88967395      0.241159007      -0.00000000       108.717232       1.58278573    
   0.00000000       0.00000000       0.00000000       153.436188       1.58220720    
  -1.87057400      0.360523999      -0.00000000       153.436188       1.58220720    
  -1.85819399      0.419692010      -0.00000000       153.436188       1.58220720    
  -1.84394205      0.478437006      -0.00000000       153.436188       1.58220720    
  -1.89637399      0.181081995      -0.00000000       64.1411285       1.58360255    
  -1.88967395      0.241159007      -0.00000000       64.1411285       1.58360255    
   0.00000000       0.00000000       0.00000000       64.1411285       1.58360255    
  -1.90116501      0.120823003      -0.00000000       64.1411285       1.58360255    
  -1.90404105      -6.04420006E-02  -0.00000000       24.1547718      -1.56104541    
  -1.90499997       0.00000000      -0.00000000       24.1547718      -1.56104541    
   0.00000000       0.00000000       0.00000000       24.1547718      -1.56104541    
  -1.90116501     -0.120823003      -0.00000000       24.1547718      -1.56104541    
   0.00000000       0.00000000       0.00000000       19.9434795       1.58574092    
  -1.90499997       0.00000000      -0.00000000       19.9434795       1.58574092    
  -1.90404105       6.04420006E-02  -0.00000000       19.9434795       1.58574092    
  -1.90116501      0.120823003      -0.00000000       19.9434795       1.58574092    
  -1.89637399     -0.181081995      -0.00000000       68.5186310      -1.55990052    
  -1.90116501     -0.120823003      -0.00000000       68.5186310      -1.55990052    
   0.00000000       0.00000000       0.00000000       68.5186310      -1.55990052    
  -1.88967395     -0.241159007      -0.00000000       68.5186310      -1.55990052    
  -1.85819399     -0.419692010      -0.00000000       157.894928      -1.56028581    
  -1.87057400     -0.360523999      -0.00000000       157.894928      -1.56028581    
   0.00000000       0.00000000       0.00000000       157.894928      -1.56028581    
  -1.84394205     -0.478437006      -0.00000000       157.894928      -1.56028581    
   0.00000000       0.00000000       0.00000000       113.149986      -1.56000912    
  -1.87057400     -0.360523999      -0.00000000       113.149986      -1.56000912    
  -1.88107097     -0.300992996      -0.00000000       113.149986      -1.56000912    
  -1.88967395     -0.241159007      -0.00000000       113.149986      -1.56000912    
  -1.82783401     -0.536701024      -0.00000000       203.723434      -1.56118858    
  -1.84394205     -0.478437006      -0.00000000       203.723434      -1.56118858    
   0.00000000       0.00000000       0.00000000       203.723434      -1.56118858    
  -1.80988598     -0.594424009      -0.00000000       203.723434      -1.56118858    
  -1.74518704     -0.763773024      -0.00000000       302.329529      -1.56526232    
  -1.76854098     -0.708016992      -0.00000000       302.329529      -1.56526232    
   0.00000000       0.00000000       0.00000000       302.329529      -1.56526232    
  -1.72007501     -0.818759024      -0.00000000       302.329529      -1.56526232    
   0.00000000       0.00000000       0.00000000       251.599030      -1.56284380    
  -1.76854098     -0.708016992      -0.00000000       251.599030      -1.56284380    
  -1.79011405     -0.651548028      -0.00000000       251.599030      -1.56284380    
  -1.80988598     -0.594424009      -0.00000000       251.599030      -1.56284380    
  -1.69323206     -0.872922003      -0.00000000       356.955597      -1.56846368    
  -1.72007501     -0.818759024      -0.00000000       356.955597      -1.56846368    
   0.00000000       0.00000000       0.00000000       356.955597      -1.56846368    
  -1.66468298     -0.926204979      -0.00000000       356.955597      -1.56846368    
  -1.56910396      -1.08024895      -0.00000000       478.273010      -1.57634747    
  -1.60258806      -1.02992105      -0.00000000       478.273010      -1.57634747    
   0.00000000       0.00000000       0.00000000       478.273010      -1.57634747    
  -1.53403997      -1.12949002      -0.00000000       478.273010      -1.57634747    
   0.00000000       0.00000000       0.00000000       415.899841      -1.57226110    
  -1.60258806      -1.02992105      -0.00000000       415.899841      -1.57226110    
  -1.63445795     -0.978555024      -0.00000000       415.899841      -1.57226110    
  -1.66468298     -0.926204979      -0.00000000       415.899841      -1.57226110    
  -1.49743104      -1.17759299      -0.00000000       541.615967      -1.58025289    
  -1.53403997      -1.12949002      -0.00000000       541.615967      -1.58025289    
   0.00000000       0.00000000       0.00000000       541.615967      -1.58025289    
  -1.45931494      -1.22450995      -0.00000000       541.615967      -1.58025289    
  -1.33631003      -1.35768199      -0.00000000       642.631592      -1.58370638    
  -1.37871301      -1.31459999      -0.00000000       642.631592      -1.58370638    
   0.00000000       0.00000000       0.00000000       642.631592      -1.58370638    
  -1.29255998      -1.39939702      -0.00000000       642.631592      -1.58370638    
   0.00000000       0.00000000       0.00000000       601.574768      -1.58342016    
  -1.37871301      -1.31459999      -0.00000000       601.574768      -1.58342016    
  -1.41972899      -1.27019501      -0.00000000       601.574768      -1.58342016    
  -1.45931494      -1.22450995      -0.00000000       601.574768      -1.58342016    
  -1.24750996      -1.43970299      -0.00000000       646.629944      -1.57863653    
  -1.29255998      -1.39939702      -0.00000000       646.629944      -1.57863653    
   0.00000000       0.00000000       0.00000000       646.629944      -1.57863653    
  -1.20120299      -1.47855902      -0.00000000       646.629944      -1.57863653    
  -1.05521798      -1.58604598      -0.00000000       613.068848      -1.56273723    
  -1.10500801      -1.55176699      -0.00000000       613.068848      -1.56273723    
   0.00000000       0.00000000       0.00000000       613.068848      -1.56273723    
  -1.00436401      -1.61872697      -0.00000000       613.068848      -1.56273723    
   0.00000000       0.00000000       0.00000000       631.370850      -1.57084429    
  -1.10500801      -1.55176699      -0.00000000       631.370850      -1.57084429    
  -1.15368605      -1.51592600      -0.00000000       631.370850      -1.57084429    
  -1.20120299      -1.47855902      -0.00000000       631.370850      -1.57084429    
 -0.952499986      -1.64977801      -0.00000000       596.334717      -1.55506516    
  -1.00436401      -1.61872697      -0.00000000       596.334717      -1.55506516    
   0.00000000       0.00000000       0.00000000       596.334717      -1.55506516    
 -0.899676025      -1.67916906      -0.00000000       596.334717      -1.55506516    
 -0.735987008      -1.75708497      -0.00000000       575.163635      -1.54292655    
 -0.791365981      -1.73284900      -0.00000000       575.163635      -1.54292655    
   0.00000000       0.00000000       0.00000000       575.163635      -1.54292655    
 -0.679867983      -1.77955198      -0.00000000       575.163635      -1.54292655    
   0.00000000       0.00000000       0.00000000       583.696045      -1.54840863    
 -0.791365981      -1.73284900      -0.00000000       583.696045      -1.54840863    
 -0.845947027      -1.70686805      -0.00000000       583.696045      -1.54840863    
 -0.899676025      -1.67916906      -0.00000000       583.696045      -1.54840863    
 -0.623063982      -1.80022705      -0.00000000       570.419495      -1.53871143    
 -0.679867983      -1.77955198      -0.00000000       570.419495      -1.53871143    
   0.00000000       0.00000000       0.00000000       570.419495      -1.53871143    
 -0.565632999      -1.81908906      -0.00000000       570.419495      -1.53871143    
 -0.390157014      -1.86461902      -0.00000000       568.571350      -1.53349268    
 -0.449120998      -1.85130095      -0.00000000       568.571350      -1.53349268    
   0.00000000       0.00000000       0.00000000       568.571350      -1.53349268    
 -0.330799997      -1.87605906      -0.00000000       568.571350      -1.53349268    
   0.00000000       0.00000000       0.00000000       568.546021      -1.53562832    
 -0.449120998      -1.85130095      -0.00000000       568.546021      -1.53562832    
 -0.507632971      -1.83611906      -0.00000000       568.546021      -1.53562832    
 -0.565632999      -1.81908906      -0.00000000       568.546021      -1.53562832    
 -0.271109998      -1.88560998      -0.00000000       569.438904      -1.53210247    
 -0.330799997      -1.87605906      -0.00000000       569.438904      -1.53210247    
   0.00000000       0.00000000       0.00000000       569.438904      -1.53210247    
 -0.211146995      -1.89326203      -0.00000000       569.438904      -1.53210247    
  -3.02249994E-02  -1.90476000      -0.00000000       570.209839      -1.53080189    
  -9.06440020E-02  -1.90284204      -0.00000000       570.209839      -1.53080189    
   0.00000000       0.00000000       0.00000000       570.209839      -1.53080189    
   3.02249994E-02  -1.90476000      -0.00000000       570.209839      -1.53080189    
   0.00000000       0.00000000       0.00000000       570.038452      -1.53121424    
  -9.06440020E-02  -1.90284204      -0.00000000       570.038452      -1.53121424    
 -0.150970995      -1.89900804      -0.00000000       570.038452      -1.53121424    
 -0.211146995      -1.89326203      -0.00000000       570.038452      -1.53121424    
   9.06440020E-02  -1.90284204      -0.00000000       569.486694      -1.53074884    
   3.02249994E-02  -1.90476000      -0.00000000       569.486694      -1.53074884    
   0.00000000       0.00000000       0.00000000       569.486694      -1.53074884    
  0.150970995      -1.89900804      -0.00000000       569.486694      -1.53074884    
  0.330799997      -1.87605906      -0.00000000       566.120239      -1.53190792    
  0.271109998      -1.88560998      -0.00000000       566.120239      -1.53190792    
   0.00000000       0.00000000       0.00000000       566.120239      -1.53190792    
  0.390157014      -1.86461902      -0.00000000       566.120239      -1.53190792    
   0.00000000       0.00000000       0.00000000       568.005737      -1.53108549    
  0.271109998      -1.88560998      -0.00000000       568.005737      -1.53108549    
  0.211146995      -1.89326203      -0.00000000       568.005737      -1.53108549    
  0.150970995      -1.89900804      -0.00000000       568.005737      -1.53108549    
  0.449120998      -1.85130095      -0.00000000       564.343018      -1.53330708    
  0.390157014      -1.86461902      -0.00000000       564.343018      -1.53330708    
   0.00000000       0.00000000       0.00000000       564.343018      -1.53330708    
  0.507632971      -1.83611906      -0.00000000       564.343018      -1.53330708    
  0.679867983      -1.77955198      -0.00000000       565.187195      -1.53869998    
  0.623063982      -1.80022705      -0.00000000       565.187195      -1.53869998    
   0.00000000       0.00000000       0.00000000       565.187195      -1.53869998    
  0.735987008      -1.75708497      -0.00000000       565.187195      -1.53869998    
   0.00000000       0.00000000       0.00000000       563.760742      -1.53552032    
  0.623063982      -1.80022705      -0.00000000       563.760742      -1.53552032    
  0.565632999      -1.81908906      -0.00000000       563.760742      -1.53552032    
  0.507632971      -1.83611906      -0.00000000       563.760742      -1.53552032    
  0.791365981      -1.73284900      -0.00000000       569.338135      -1.54299057    
  0.735987008      -1.75708497      -0.00000000       569.338135      -1.54299057    
   0.00000000       0.00000000       0.00000000       569.338135      -1.54299057    
  0.845947027      -1.70686805      -0.00000000       569.338135      -1.54299057    
   1.00436401      -1.61872697      -0.00000000       588.722778      -1.55517912    
  0.952499986      -1.64977801      -0.00000000       588.722778      -1.55517912    
   0.00000000       0.00000000       0.00000000       588.722778      -1.55517912    
   1.05521798      -1.58604598      -0.00000000       588.722778      -1.55517912    
   0.00000000       0.00000000       0.00000000       577.103638      -1.54851353    
  0.952499986      -1.64977801      -0.00000000       577.103638      -1.54851353    
  0.899676025      -1.67916906      -0.00000000       577.103638      -1.54851353    
  0.845947027      -1.70686805      -0.00000000       577.103638      -1.54851353    
   1.10500801      -1.55176699      -0.00000000       603.478149      -1.56274939    
   1.05521798      -1.58604598      -0.00000000       603.478149      -1.56274939    
   0.00000000       0.00000000       0.00000000       603.478149      -1.56274939    
   1.15368605      -1.51592600      -0.00000000       603.478149      -1.56274939    
   1.29255998      -1.39939702      -0.00000000       630.454834      -1.57834375    
   1.24750996      -1.43970299      -0.00000000       630.454834      -1.57834375    
   0.00000000       0.00000000       0.00000000       630.454834      -1.57834375    
   1.33631003      -1.35768199      -0.00000000       630.454834      -1.57834375    
   0.00000000       0.00000000       0.00000000       618.826416      -1.57069826    
   1.24750996      -1.43970299      -0.00000000       618.826416      -1.57069826    
   1.20120299      -1.47855902      -0.00000000       618.826416      -1.57069826    