 VARIABLES="X" "Y" "Z" "abs(p) (Pa)" "angle(p) (rad)"
ZONE N=    802,E =     800, F=FEPOINT, ET=QUADRILATERAL
   1.90499997       0.00000000      -0.00000000       437.903320       1.57104528    
   1.90404105      -6.04420006E-02  -0.00000000       437.903320       1.57104528    
   0.00000000       0.00000000       0.00000000       437.903320       1.57104528    
   1.90404105       6.04420006E-02  -0.00000000       437.903320       1.57104528    
   1.88967395      0.241159007      -0.00000000       437.172516       1.57104576    
   1.89637399      0.181081995      -0.00000000       437.172516       1.57104576    
   0.00000000       0.00000000       0.00000000       437.172516       1.57104576    
   1.88107097      0.300992996      -0.00000000       437.172516       1.57104576    
   0.00000000       0.00000000       0.00000000       437.674011       1.57104540    
   1.89637399      0.181081995      -0.00000000       437.674011       1.57104540    
   1.90116501      0.120823003      -0.00000000       437.674011       1.57104540    
   1.90404105       6.04420006E-02  -0.00000000       437.674011       1.57104540    
   1.87057400      0.360523999      -0.00000000       436.618134       1.57104599    
   1.88107097      0.300992996      -0.00000000       436.618134       1.57104599    
   0.00000000       0.00000000       0.00000000       436.618134       1.57104599    
   1.85819399      0.419692010      -0.00000000       436.618134       1.57104599    
   1.80988598      0.594424009      -0.00000000       436.300995       1.57104623    
   1.82783401      0.536701024      -0.00000000       436.300995       1.57104623    
   0.00000000       0.00000000       0.00000000       436.300995       1.57104623    
   1.79011405      0.651548028      -0.00000000       436.300995       1.57104623    
   0.00000000       0.00000000       0.00000000       436.146942       1.57104623    
   1.82783401      0.536701024      -0.00000000       436.146942       1.57104623    
   1.84394205      0.478437006      -0.00000000       436.146942       1.57104623    
   1.85819399      0.419692010      -0.00000000       436.146942       1.57104623    
   1.76854098      0.708016992      -0.00000000       437.359192       1.57104552    
   1.79011405      0.651548028      -0.00000000       437.359192       1.57104552    
   0.00000000       0.00000000       0.00000000       437.359192       1.57104552    
   1.74518704      0.763773024      -0.00000000       437.359192       1.57104552    
   1.66468298      0.926204979      -0.00000000       442.760345       1.57104242    
   1.69323206      0.872922003      -0.00000000       442.760345       1.57104242    
   0.00000000       0.00000000       0.00000000       442.760345       1.57104242    
   1.63445795      0.978555024      -0.00000000       442.760345       1.57104242    
   0.00000000       0.00000000       0.00000000       439.491882       1.57104433    
   1.69323206      0.872922003      -0.00000000       439.491882       1.57104433    
   1.72007501      0.818759024      -0.00000000       439.491882       1.57104433    
   1.74518704      0.763773024      -0.00000000       439.491882       1.57104433    
   1.60258806       1.02992105      -0.00000000       446.870728       1.57104015    
   1.63445795      0.978555024      -0.00000000       446.870728       1.57104015    
   0.00000000       0.00000000       0.00000000       446.870728       1.57104015    
   1.56910396       1.08024895      -0.00000000       446.870728       1.57104015    
   1.45931494       1.22450995      -0.00000000       452.229889       1.57103717    
   1.49743104       1.17759299      -0.00000000       452.229889       1.57103717    
   0.00000000       0.00000000       0.00000000       452.229889       1.57103717    
   1.41972899       1.27019501      -0.00000000       452.229889       1.57103717    
   0.00000000       0.00000000       0.00000000       450.702454       1.57103813    
   1.49743104       1.17759299      -0.00000000       450.702454       1.57103813    
   1.53403997       1.12949002      -0.00000000       450.702454       1.57103813    
   1.56910396       1.08024895      -0.00000000       450.702454       1.57103813    
   1.37871301       1.31459999      -0.00000000       443.596680       1.57104182    
   1.41972899       1.27019501      -0.00000000       443.596680       1.57104182    
   0.00000000       0.00000000       0.00000000       443.596680       1.57104182    
   1.33631003       1.35768199      -0.00000000       443.596680       1.57104182    
   1.20120299       1.47855902      -0.00000000       375.155426       1.57108676    
   1.24750996       1.43970299      -0.00000000       375.155426       1.57108676    
   0.00000000       0.00000000       0.00000000       375.155426       1.57108676    
   1.15368605       1.51592600      -0.00000000       375.155426       1.57108676    
   0.00000000       0.00000000       0.00000000       414.535217       1.57105911    
   1.24750996       1.43970299      -0.00000000       414.535217       1.57105911    
   1.29255998       1.39939702      -0.00000000       414.535217       1.57105911    
   1.33631003       1.35768199      -0.00000000       414.535217       1.57105911    
   1.10500801       1.55176699      -0.00000000       334.301910       1.57112217    
   1.15368605       1.51592600      -0.00000000       334.301910       1.57112217    
   0.00000000       0.00000000       0.00000000       334.301910       1.57112217    
   1.05521798       1.58604598      -0.00000000       334.301910       1.57112217    
  0.899676025       1.67916906      -0.00000000       255.865631       1.57122207    
  0.952499986       1.64977801      -0.00000000       255.865631       1.57122207    
   0.00000000       0.00000000       0.00000000       255.865631       1.57122207    
  0.845947027       1.70686805      -0.00000000       255.865631       1.57122207    
   0.00000000       0.00000000       0.00000000       294.302795       1.57116652    
  0.952499986       1.64977801      -0.00000000       294.302795       1.57116652    
   1.00436401       1.61872697      -0.00000000       294.302795       1.57116652    
   1.05521798       1.58604598      -0.00000000       294.302795       1.57116652    
  0.791365981       1.73284900      -0.00000000       219.108154       1.57129359    
  0.845947027       1.70686805      -0.00000000       219.108154       1.57129359    
   0.00000000       0.00000000       0.00000000       219.108154       1.57129359    
  0.735987008       1.75708497      -0.00000000       219.108154       1.57129359    
  0.565632999       1.81908906      -0.00000000       150.595978       1.57151973    
  0.623063982       1.80022705      -0.00000000       150.595978       1.57151973    
   0.00000000       0.00000000       0.00000000       150.595978       1.57151973    
  0.507632971       1.83611906      -0.00000000       150.595978       1.57151973    
   0.00000000       0.00000000       0.00000000       184.118683       1.57138801    
  0.623063982       1.80022705      -0.00000000       184.118683       1.57138801    
  0.679867983       1.77955198      -0.00000000       184.118683       1.57138801    
  0.735987008       1.75708497      -0.00000000       184.118683       1.57138801    
  0.449120998       1.85130095      -0.00000000       118.186165       1.57171798    
  0.507632971       1.83611906      -0.00000000       118.186165       1.57171798    
   0.00000000       0.00000000       0.00000000       118.186165       1.57171798    
  0.390157014       1.86461902      -0.00000000       118.186165       1.57171798    
  0.211146995       1.89326203      -0.00000000       55.3357201       1.57276475    
  0.271109998       1.88560998      -0.00000000       55.3357201       1.57276475    
   0.00000000       0.00000000       0.00000000       55.3357201       1.57276475    
  0.150970995       1.89900804      -0.00000000       55.3357201       1.57276475    
   0.00000000       0.00000000       0.00000000       86.4846802       1.57205582    
  0.271109998       1.88560998      -0.00000000       86.4846802       1.57205582    
  0.330799997       1.87605906      -0.00000000       86.4846802       1.57205582    
  0.390157014       1.86461902      -0.00000000       86.4846802       1.57205582    
   9.06440020E-02   1.90284204      -0.00000000       24.4916306       1.57524347    
  0.150970995       1.89900804      -0.00000000       24.4916306       1.57524347    
   0.00000000       0.00000000       0.00000000       24.4916306       1.57524347    
   3.02249994E-02   1.90476000      -0.00000000       24.4916306       1.57524347    
 -0.150970995       1.89900804      -0.00000000       37.1519051      -1.57372773    
  -9.06440020E-02   1.90284204      -0.00000000       37.1519051      -1.57372773    
   0.00000000       0.00000000       0.00000000       37.1519051      -1.57372773    
 -0.211146995       1.89326203      -0.00000000       37.1519051      -1.57372773    
   0.00000000       0.00000000       0.00000000       6.30775547      -1.58806384    
  -9.06440020E-02   1.90284204      -0.00000000       6.30775547      -1.58806384    
  -3.02249994E-02   1.90476000      -0.00000000       6.30775547      -1.58806384    
   3.02249994E-02   1.90476000      -0.00000000       6.30775547      -1.58806384    
 -0.271109998       1.88560998      -0.00000000       68.3324585      -1.57238996    
 -0.211146995       1.89326203      -0.00000000       68.3324585      -1.57238996    
   0.00000000       0.00000000       0.00000000       68.3324585      -1.57238996    
 -0.330799997       1.87605906      -0.00000000       68.3324585      -1.57238996    
 -0.507632971       1.83611906      -0.00000000       132.604645      -1.57161748    
 -0.449120998       1.85130095      -0.00000000       132.604645      -1.57161748    
   0.00000000       0.00000000       0.00000000       132.604645      -1.57161748    
 -0.565632999       1.81908906      -0.00000000       132.604645      -1.57161748    
   0.00000000       0.00000000       0.00000000       100.080627      -1.57188439    
 -0.449120998       1.85130095      -0.00000000       100.080627      -1.57188439    
 -0.390157014       1.86461902      -0.00000000       100.080627      -1.57188439    
 -0.330799997       1.87605906      -0.00000000       100.080627      -1.57188439    
 -0.623063982       1.80022705      -0.00000000       166.374359      -1.57145071    
 -0.565632999       1.81908906      -0.00000000       166.374359      -1.57145071    
   0.00000000       0.00000000       0.00000000       166.374359      -1.57145071    
 -0.679867983       1.77955198      -0.00000000       166.374359      -1.57145071    
 -0.845947027       1.70686805      -0.00000000       238.237732      -1.57125330    
 -0.791365981       1.73284900      -0.00000000       238.237732      -1.57125330    
   0.00000000       0.00000000       0.00000000       238.237732      -1.57125330    
 -0.899676025       1.67916906      -0.00000000       238.237732      -1.57125330    
   0.00000000       0.00000000       0.00000000       201.573669      -1.57133651    
 -0.791365981       1.73284900      -0.00000000       201.573669      -1.57133651    
 -0.735987008       1.75708497      -0.00000000       201.573669      -1.57133651    
 -0.679867983       1.77955198      -0.00000000       201.573669      -1.57133651    
 -0.952499986       1.64977801      -0.00000000       276.364471      -1.57119024    
 -0.899676025       1.67916906      -0.00000000       276.364471      -1.57119024    
   0.00000000       0.00000000       0.00000000       276.364471      -1.57119024    
  -1.00436401       1.61872697      -0.00000000       276.364471      -1.57119024    
  -1.15368605       1.51592600      -0.00000000       355.133789      -1.57110286    
  -1.10500801       1.55176699      -0.00000000       355.133789      -1.57110286    
   0.00000000       0.00000000       0.00000000       355.133789      -1.57110286    
  -1.20120299       1.47855902      -0.00000000       355.133789      -1.57110286    
   0.00000000       0.00000000       0.00000000       315.690887      -1.57114112    
  -1.10500801       1.55176699      -0.00000000       315.690887      -1.57114112    
  -1.05521798       1.58604598      -0.00000000       315.690887      -1.57114112    
  -1.00436401       1.61872697      -0.00000000       315.690887      -1.57114112    
  -1.24750996       1.43970299      -0.00000000       392.701080      -1.57107353    
  -1.20120299       1.47855902      -0.00000000       392.701080      -1.57107353    
   0.00000000       0.00000000       0.00000000       392.701080      -1.57107353    
  -1.29255998       1.39939702      -0.00000000       392.701080      -1.57107353    
  -1.41972899       1.27019501      -0.00000000       428.644135      -1.57105017    
  -1.37871301       1.31459999      -0.00000000       428.644135      -1.57105017    
   0.00000000       0.00000000       0.00000000       428.644135      -1.57105017    
  -1.45931494       1.22450995      -0.00000000       428.644135      -1.57105017    
   0.00000000       0.00000000       0.00000000       420.541321      -1.57105517    
  -1.37871301       1.31459999      -0.00000000       420.541321      -1.57105517    
  -1.33631003       1.35768199      -0.00000000       420.541321      -1.57105517    
  -1.29255998       1.39939702      -0.00000000       420.541321      -1.57105517    
  -1.49743104       1.17759299      -0.00000000       426.641541      -1.57105136    
  -1.45931494       1.22450995      -0.00000000       426.641541      -1.57105136    
   0.00000000       0.00000000       0.00000000       426.641541      -1.57105136    
  -1.53403997       1.12949002      -0.00000000       426.641541      -1.57105136    
  -1.63445795      0.978555024      -0.00000000       419.623718      -1.57105565    
  -1.60258806       1.02992105      -0.00000000       419.623718      -1.57105565    
   0.00000000       0.00000000       0.00000000       419.623718      -1.57105565    
  -1.66468298      0.926204979      -0.00000000       419.623718      -1.57105565    
   0.00000000       0.00000000       0.00000000       422.916321      -1.57105362    
  -1.60258806       1.02992105      -0.00000000       422.916321      -1.57105362    
  -1.56910396       1.08024895      -0.00000000       422.916321      -1.57105362    
  -1.53403997       1.12949002      -0.00000000       422.916321      -1.57105362    
  -1.69323206      0.872922003      -0.00000000       417.417084      -1.57105696    
  -1.66468298      0.926204979      -0.00000000       417.417084      -1.57105696    
   0.00000000       0.00000000       0.00000000       417.417084      -1.57105696    
  -1.72007501      0.818759024      -0.00000000       417.417084      -1.57105696    
  -1.79011405      0.651548028      -0.00000000       416.740051      -1.57105744    
  -1.76854098      0.708016992      -0.00000000       416.740051      -1.57105744    
   0.00000000       0.00000000       0.00000000       416.740051      -1.57105744    
  -1.80988598      0.594424009      -0.00000000       416.740051      -1.57105744    
   0.00000000       0.00000000       0.00000000       416.491943      -1.57105756    
  -1.76854098      0.708016992      -0.00000000       416.491943      -1.57105756    
  -1.74518704      0.763773024      -0.00000000       416.491943      -1.57105756    
  -1.72007501      0.818759024      -0.00000000       416.491943      -1.57105756    
  -1.82783401      0.536701024      -0.00000000       417.774719      -1.57105672    
  -1.80988598      0.594424009      -0.00000000       417.774719      -1.57105672    
   0.00000000       0.00000000       0.00000000       417.774719      -1.57105672    
  -1.84394205      0.478437006      -0.00000000       417.774719      -1.57105672    
  -1.88107097      0.300992996      -0.00000000       420.535431      -1.57105505    
  -1.87057400      0.360523999      -0.00000000       420.535431      -1.57105505    
   0.00000000       0.00000000       0.00000000       420.535431      -1.57105505    
  -1.88967395      0.241159007      -0.00000000       420.535431      -1.57105505    
   0.00000000       0.00000000       0.00000000       419.196472      -1.57105589    
  -1.87057400      0.360523999      -0.00000000       419.196472      -1.57105589    
  -1.85819399      0.419692010      -0.00000000       419.196472      -1.57105589    
  -1.84394205      0.478437006      -0.00000000       419.196472      -1.57105589    
  -1.89637399      0.181081995      -0.00000000       421.746979      -1.57105434    
  -1.88967395      0.241159007      -0.00000000       421.746979      -1.57105434    
   0.00000000       0.00000000       0.00000000       421.746979      -1.57105434    
  -1.90116501      0.120823003      -0.00000000       421.746979      -1.57105434    
  -1.90404105      -6.04420006E-02  -0.00000000       422.526154      -1.57105386    
  -1.90499997       0.00000000      -0.00000000       422.526154      -1.57105386    
   0.00000000       0.00000000       0.00000000       422.526154      -1.57105386    
  -1.90116501     -0.120823003      -0.00000000       422.526154      -1.57105386    
   0.00000000       0.00000000       0.00000000       422.475189      -1.57105386    
  -1.90499997       0.00000000      -0.00000000       422.475189      -1.57105386    
  -1.90404105       6.04420006E-02  -0.00000000       422.475189      -1.57105386    
  -1.90116501      0.120823003      -0.00000000       422.475189      -1.57105386    
  -1.89637399     -0.181081995      -0.00000000       421.968689      -1.57105422    
  -1.90116501     -0.120823003      -0.00000000       421.968689      -1.57105422    
   0.00000000       0.00000000       0.00000000       421.968689      -1.57105422    
  -1.88967395     -0.241159007      -0.00000000       421.968689      -1.57105422    
  -1.85819399     -0.419692010      -0.00000000       420.197296      -1.57105529    
  -1.87057400     -0.360523999      -0.00000000       420.197296      -1.57105529    
   0.00000000       0.00000000       0.00000000       420.197296      -1.57105529    
  -1.84394205     -0.478437006      -0.00000000       420.197296      -1.57105529    
   0.00000000       0.00000000       0.00000000       421.162750      -1.57105470    
  -1.87057400     -0.360523999      -0.00000000       421.162750      -1.57105470    
  -1.88107097     -0.300992996      -0.00000000       421.162750      -1.57105470    
  -1.88967395     -0.241159007      -0.00000000       421.162750      -1.57105470    
  -1.82783401     -0.536701024      -0.00000000       419.252502      -1.57105589    
  -1.84394205     -0.478437006      -0.00000000       419.252502      -1.57105589    
   0.00000000       0.00000000       0.00000000       419.252502      -1.57105589    
  -1.80988598     -0.594424009      -0.00000000       419.252502      -1.57105589    
  -1.74518704     -0.763773024      -0.00000000       419.344574      -1.57105577    
  -1.76854098     -0.708016992      -0.00000000       419.344574      -1.57105577    
   0.00000000       0.00000000       0.00000000       419.344574      -1.57105577    
  -1.72007501     -0.818759024      -0.00000000       419.344574      -1.57105577    
   0.00000000       0.00000000       0.00000000       418.885101      -1.57105613    
  -1.76854098     -0.708016992      -0.00000000       418.885101      -1.57105613    
  -1.79011405     -0.651548028      -0.00000000       418.885101      -1.57105613    
  -1.80988598     -0.594424009      -0.00000000       418.885101      -1.57105613    
  -1.69323206     -0.872922003      -0.00000000       420.834808      -1.57105494    
  -1.72007501     -0.818759024      -0.00000000       420.834808      -1.57105494    
   0.00000000       0.00000000       0.00000000       420.834808      -1.57105494    
  -1.66468298     -0.926204979      -0.00000000       420.834808      -1.57105494    
  -1.56910396      -1.08024895      -0.00000000       426.539581      -1.57105148    
  -1.60258806      -1.02992105      -0.00000000       426.539581      -1.57105148    
   0.00000000       0.00000000       0.00000000       426.539581      -1.57105148    
  -1.53403997      -1.12949002      -0.00000000       426.539581      -1.57105148    
   0.00000000       0.00000000       0.00000000       423.322113      -1.57105339    
  -1.60258806      -1.02992105      -0.00000000       423.322113      -1.57105339    
  -1.63445795     -0.978555024      -0.00000000       423.322113      -1.57105339    
  -1.66468298     -0.926204979      -0.00000000       423.322113      -1.57105339    
  -1.49743104      -1.17759299      -0.00000000       429.425720      -1.57104969    
  -1.53403997      -1.12949002      -0.00000000       429.425720      -1.57104969    
   0.00000000       0.00000000       0.00000000       429.425720      -1.57104969    
  -1.45931494      -1.22450995      -0.00000000       429.425720      -1.57104969    
  -1.33631003      -1.35768199      -0.00000000       420.611542      -1.57105505    
  -1.37871301      -1.31459999      -0.00000000       420.611542      -1.57105505    
   0.00000000       0.00000000       0.00000000       420.611542      -1.57105505    
  -1.29255998      -1.39939702      -0.00000000       420.611542      -1.57105505    
   0.00000000       0.00000000       0.00000000       430.026794      -1.57104945    
  -1.37871301      -1.31459999      -0.00000000       430.026794      -1.57104945    
  -1.41972899      -1.27019501      -0.00000000       430.026794      -1.57104945    
  -1.45931494      -1.22450995      -0.00000000       430.026794      -1.57104945    
  -1.24750996      -1.43970299      -0.00000000       391.384338      -1.57107437    
  -1.29255998      -1.39939702      -0.00000000       391.384338      -1.57107437    
   0.00000000       0.00000000       0.00000000       391.384338      -1.57107437    
  -1.20120299      -1.47855902      -0.00000000       391.384338      -1.57107437    
  -1.05521798      -1.58604598      -0.00000000       311.792114      -1.57114542    
  -1.10500801      -1.55176699      -0.00000000       311.792114      -1.57114542    
   0.00000000       0.00000000       0.00000000       311.792114      -1.57114542    
  -1.00436401      -1.61872697      -0.00000000       311.792114      -1.57114542    
   0.00000000       0.00000000       0.00000000       352.301361      -1.57110524    
  -1.10500801      -1.55176699      -0.00000000       352.301361      -1.57110524    
  -1.15368605      -1.51592600      -0.00000000       352.301361      -1.57110524    
  -1.20120299      -1.47855902      -0.00000000       352.301361      -1.57110524    
 -0.952499986      -1.64977801      -0.00000000       272.087891      -1.57119644    
  -1.00436401      -1.61872697      -0.00000000       272.087891      -1.57119644    
   0.00000000       0.00000000       0.00000000       272.087891      -1.57119644    
 -0.899676025      -1.67916906      -0.00000000       272.087891      -1.57119644    
 -0.735987008      -1.75708497      -0.00000000       197.347809      -1.57134807    
 -0.791365981      -1.73284900      -0.00000000       197.347809      -1.57134807    
   0.00000000       0.00000000       0.00000000       197.347809      -1.57134807    
 -0.679867983      -1.77955198      -0.00000000       197.347809      -1.57134807    
   0.00000000       0.00000000       0.00000000       233.896759      -1.57126176    
 -0.791365981      -1.73284900      -0.00000000       233.896759      -1.57126176    
 -0.845947027      -1.70686805      -0.00000000       233.896759      -1.57126176    
 -0.899676025      -1.67916906      -0.00000000       233.896759      -1.57126176    
 -0.623063982      -1.80022705      -0.00000000       162.537735      -1.57146621    
 -0.679867983      -1.77955198      -0.00000000       162.537735      -1.57146621    
   0.00000000       0.00000000       0.00000000       162.537735      -1.57146621    
 -0.565632999      -1.81908906      -0.00000000       162.537735      -1.57146621    
 -0.390157014      -1.86461902      -0.00000000       96.9006882      -1.57192004    
 -0.449120998      -1.85130095      -0.00000000       96.9006882      -1.57192004    
   0.00000000       0.00000000       0.00000000       96.9006882      -1.57192004    
 -0.330799997      -1.87605906      -0.00000000       96.9006882      -1.57192004    
   0.00000000       0.00000000       0.00000000       129.175766      -1.57163930    
 -0.449120998      -1.85130095      -0.00000000       129.175766      -1.57163930    
 -0.507632971      -1.83611906      -0.00000000       129.175766      -1.57163930    
 -0.565632999      -1.81908906      -0.00000000       129.175766      -1.57163930    
 -0.271109998      -1.88560998      -0.00000000       65.3171768      -1.57246363    
 -0.330799997      -1.87605906      -0.00000000       65.3171768      -1.57246363    
   0.00000000       0.00000000       0.00000000       65.3171768      -1.57246363    
 -0.211146995      -1.89326203      -0.00000000       65.3171768      -1.57246363    
  -3.02249994E-02  -1.90476000      -0.00000000       3.45250249      -1.60234737    
  -9.06440020E-02  -1.90284204      -0.00000000       3.45250249      -1.60234737    
   0.00000000       0.00000000       0.00000000       3.45250249      -1.60234737    
   3.02249994E-02  -1.90476000      -0.00000000       3.45250249      -1.60234737    
   0.00000000       0.00000000       0.00000000       34.2560844      -1.57397556    
  -9.06440020E-02  -1.90284204      -0.00000000       34.2560844      -1.57397556    
 -0.150970995      -1.89900804      -0.00000000       34.2560844      -1.57397556    
 -0.211146995      -1.89326203      -0.00000000       34.2560844      -1.57397556    
   9.06440020E-02  -1.90284204      -0.00000000       27.3615894       1.57477701    
   3.02249994E-02  -1.90476000      -0.00000000       27.3615894       1.57477701    
   0.00000000       0.00000000       0.00000000       27.3615894       1.57477701    
  0.150970995      -1.89900804      -0.00000000       27.3615894       1.57477701    
  0.330799997      -1.87605906      -0.00000000       89.5730286       1.57201242    
  0.271109998      -1.88560998      -0.00000000       89.5730286       1.57201242    
   0.00000000       0.00000000       0.00000000       89.5730286       1.57201242    
  0.390157014      -1.86461902      -0.00000000       89.5730286       1.57201242    
   0.00000000       0.00000000       0.00000000       58.2756233       1.57266545    
  0.271109998      -1.88560998      -0.00000000       58.2756233       1.57266545    
  0.211146995      -1.89326203      -0.00000000       58.2756233       1.57266545    
  0.150970995      -1.89900804      -0.00000000       58.2756233       1.57266545    
  0.449120998      -1.85130095      -0.00000000       121.472580       1.57169306    
  0.390157014      -1.86461902      -0.00000000       121.472580       1.57169306    
   0.00000000       0.00000000       0.00000000       121.472580       1.57169306    
  0.507632971      -1.83611906      -0.00000000       121.472580       1.57169306    
  0.679867983      -1.77955198      -0.00000000       188.148438       1.57137537    
  0.623063982      -1.80022705      -0.00000000       188.148438       1.57137537    
   0.00000000       0.00000000       0.00000000       188.148438       1.57137537    
  0.735987008      -1.75708497      -0.00000000       188.148438       1.57137537    
   0.00000000       0.00000000       0.00000000       154.173996       1.57150292    
  0.623063982      -1.80022705      -0.00000000       154.173996       1.57150292    
  0.565632999      -1.81908906      -0.00000000       154.173996       1.57150292    
  0.507632971      -1.83611906      -0.00000000       154.173996       1.57150292    
  0.791365981      -1.73284900      -0.00000000       223.568802       1.57128358    
  0.735987008      -1.75708497      -0.00000000       223.568802       1.57128358    
   0.00000000       0.00000000       0.00000000       223.568802       1.57128358    
  0.845947027      -1.70686805      -0.00000000       223.568802       1.57128358    
   1.00436401      -1.61872697      -0.00000000       298.889313       1.57116079    
  0.952499986      -1.64977801      -0.00000000       298.889313       1.57116079    
   0.00000000       0.00000000       0.00000000       298.889313       1.57116079    
   1.05521798      -1.58604598      -0.00000000       298.889313       1.57116079    
   0.00000000       0.00000000       0.00000000       260.481995       1.57121456    
  0.952499986      -1.64977801      -0.00000000       260.481995       1.57121456    
  0.899676025      -1.67916906      -0.00000000       260.481995       1.57121456    
  0.845947027      -1.70686805      -0.00000000       260.481995       1.57121456    
   1.10500801      -1.55176699      -0.00000000       338.543671       1.57111812    
   1.05521798      -1.58604598      -0.00000000       338.543671       1.57111812    
   0.00000000       0.00000000       0.00000000       338.543671       1.57111812    
   1.15368605      -1.51592600      -0.00000000       338.543671       1.57111812    
   1.29255998      -1.39939702      -0.00000000       416.161285       1.57105803    
   1.24750996      -1.43970299      -0.00000000       416.161285       1.57105803    
   0.00000000       0.00000000       0.00000000       416.161285       1.57105803    
   1.33631003      -1.35768199      -0.00000000       416.161285       1.57105803    
   0.00000000       0.00000000       0.00000000       378.350403       1.57108426    
   1.24750996      -1.43970299      -0.00000000       378.350403       1.57108426    
   1.20120299      -1.47855902      -0.00000000       378.350403       1.57108426    