 VARIABLES="X" "Y" "Z" "abs(p) (Pa)" "angle(p) (rad)"
ZONE N=    802,E =     800, F=FEPOINT, ET=QUADRILATERAL
   1.90499997       0.00000000      -0.00000000       1.40756559       1.78588629    
   1.90404105      -6.04420006E-02  -0.00000000       1.40756559       1.78588629    
   0.00000000       0.00000000       0.00000000       1.40756559       1.78588629    
   1.90404105       6.04420006E-02  -0.00000000       1.40756559       1.78588629    
   1.88967395      0.241159007      -0.00000000       1.41573083       1.78460717    
   1.89637399      0.181081995      -0.00000000       1.41573083       1.78460717    
   0.00000000       0.00000000       0.00000000       1.41573083       1.78460717    
   1.88107097      0.300992996      -0.00000000       1.41573083       1.78460717    
   0.00000000       0.00000000       0.00000000       1.40950406       1.78558111    
   1.89637399      0.181081995      -0.00000000       1.40950406       1.78558111    
   1.90116501      0.120823003      -0.00000000       1.40950406       1.78558111    
   1.90404105       6.04420006E-02  -0.00000000       1.40950406       1.78558111    
   1.87057400      0.360523999      -0.00000000       1.42739034       1.78280663    
   1.88107097      0.300992996      -0.00000000       1.42739034       1.78280663    
   0.00000000       0.00000000       0.00000000       1.42739034       1.78280663    
   1.85819399      0.419692010      -0.00000000       1.42739034       1.78280663    
   1.80988598      0.594424009      -0.00000000       1.47007430       1.77646697    
   1.82783401      0.536701024      -0.00000000       1.47007430       1.77646697    
   0.00000000       0.00000000       0.00000000       1.47007430       1.77646697    
   1.79011405      0.651548028      -0.00000000       1.47007430       1.77646697    
   0.00000000       0.00000000       0.00000000       1.44497907       1.78014827    
   1.82783401      0.536701024      -0.00000000       1.44497907       1.78014827    
   1.84394205      0.478437006      -0.00000000       1.44497907       1.78014827    
   1.85819399      0.419692010      -0.00000000       1.44497907       1.78014827    
   1.76854098      0.708016992      -0.00000000       1.50476968       1.77158260    
   1.79011405      0.651548028      -0.00000000       1.50476968       1.77158260    
   0.00000000       0.00000000       0.00000000       1.50476968       1.77158260    
   1.74518704      0.763773024      -0.00000000       1.50476968       1.77158260    
   1.66468298      0.926204979      -0.00000000       1.60177314       1.75905418    
   1.69323206      0.872922003      -0.00000000       1.60177314       1.75905418    
   0.00000000       0.00000000       0.00000000       1.60177314       1.75905418    
   1.63445795      0.978555024      -0.00000000       1.60177314       1.75905418    
   0.00000000       0.00000000       0.00000000       1.54886401       1.76569378    
   1.69323206      0.872922003      -0.00000000       1.54886401       1.76569378    
   1.72007501      0.818759024      -0.00000000       1.54886401       1.76569378    
   1.74518704      0.763773024      -0.00000000       1.54886401       1.76569378    
   1.60258806       1.02992105      -0.00000000       1.66057098       1.75216568    
   1.63445795      0.978555024      -0.00000000       1.66057098       1.75216568    
   0.00000000       0.00000000       0.00000000       1.66057098       1.75216568    
   1.56910396       1.08024895      -0.00000000       1.66057098       1.75216568    
   1.45931494       1.22450995      -0.00000000       1.77593255       1.73992562    
   1.49743104       1.17759299      -0.00000000       1.77593255       1.73992562    
   0.00000000       0.00000000       0.00000000       1.77593255       1.73992562    
   1.41972899       1.27019501      -0.00000000       1.77593255       1.73992562    
   0.00000000       0.00000000       0.00000000       1.72165179       1.74549425    
   1.49743104       1.17759299      -0.00000000       1.72165179       1.74549425    
   1.53403997       1.12949002      -0.00000000       1.72165179       1.74549425    
   1.56910396       1.08024895      -0.00000000       1.72165179       1.74549425    
   1.37871301       1.31459999      -0.00000000       1.80071068       1.73747790    
   1.41972899       1.27019501      -0.00000000       1.80071068       1.73747790    
   0.00000000       0.00000000       0.00000000       1.80071068       1.73747790    
   1.33631003       1.35768199      -0.00000000       1.80071068       1.73747790    
   1.20120299       1.47855902      -0.00000000       1.70655584       1.74706817    
   1.24750996       1.43970299      -0.00000000       1.70655584       1.74706817    
   0.00000000       0.00000000       0.00000000       1.70655584       1.74706817    
   1.15368605       1.51592600      -0.00000000       1.70655584       1.74706817    
   0.00000000       0.00000000       0.00000000       1.76844084       1.74065149    
   1.24750996       1.43970299      -0.00000000       1.76844084       1.74065149    
   1.29255998       1.39939702      -0.00000000       1.76844084       1.74065149    
   1.33631003       1.35768199      -0.00000000       1.76844084       1.74065149    
   1.10500801       1.55176699      -0.00000000       1.64093709       1.75438094    
   1.15368605       1.51592600      -0.00000000       1.64093709       1.75438094    
   0.00000000       0.00000000       0.00000000       1.64093709       1.75438094    
   1.05521798       1.58604598      -0.00000000       1.64093709       1.75438094    
  0.899676025       1.67916906      -0.00000000       1.52647972       1.76861846    
  0.952499986       1.64977801      -0.00000000       1.52647972       1.76861846    
   0.00000000       0.00000000       0.00000000       1.52647972       1.76861846    
  0.845947027       1.70686805      -0.00000000       1.52647972       1.76861846    
   0.00000000       0.00000000       0.00000000       1.57987416       1.76172185    
  0.952499986       1.64977801      -0.00000000       1.57987416       1.76172185    
   1.00436401       1.61872697      -0.00000000       1.57987416       1.76172185    
   1.05521798       1.58604598      -0.00000000       1.57987416       1.76172185    
  0.791365981       1.73284900      -0.00000000       1.48302650       1.77459764    
  0.845947027       1.70686805      -0.00000000       1.48302650       1.77459764    
   0.00000000       0.00000000       0.00000000       1.48302650       1.77459764    
  0.735987008       1.75708497      -0.00000000       1.48302650       1.77459764    
  0.565632999       1.81908906      -0.00000000       1.42592907       1.78301942    
  0.623063982       1.80022705      -0.00000000       1.42592907       1.78301942    
   0.00000000       0.00000000       0.00000000       1.42592907       1.78301942    
  0.507632971       1.83611906      -0.00000000       1.42592907       1.78301942    
   0.00000000       0.00000000       0.00000000       1.45005929       1.77937758    
  0.623063982       1.80022705      -0.00000000       1.45005929       1.77937758    
  0.679867983       1.77955198      -0.00000000       1.45005929       1.77937758    
  0.735987008       1.75708497      -0.00000000       1.45005929       1.77937758    
  0.449120998       1.85130095      -0.00000000       1.40876389       1.78568780    
  0.507632971       1.83611906      -0.00000000       1.40876389       1.78568780    
   0.00000000       0.00000000       0.00000000       1.40876389       1.78568780    
  0.390157014       1.86461902      -0.00000000       1.40876389       1.78568780    
  0.211146995       1.89326203      -0.00000000       1.39107060       1.78851140    
  0.271109998       1.88560998      -0.00000000       1.39107060       1.78851140    
   0.00000000       0.00000000       0.00000000       1.39107060       1.78851140    
  0.150970995       1.89900804      -0.00000000       1.39107060       1.78851140    
   0.00000000       0.00000000       0.00000000       1.39756250       1.78746593    
  0.271109998       1.88560998      -0.00000000       1.39756250       1.78746593    
  0.330799997       1.87605906      -0.00000000       1.39756250       1.78746593    
  0.390157014       1.86461902      -0.00000000       1.39756250       1.78746593    
   9.06440020E-02   1.90284204      -0.00000000       1.38822198       1.78897369    
  0.150970995       1.89900804      -0.00000000       1.38822198       1.78897369    
   0.00000000       0.00000000       0.00000000       1.38822198       1.78897369    
   3.02249994E-02   1.90476000      -0.00000000       1.38822198       1.78897369    
 -0.150970995       1.89900804      -0.00000000       1.39190519       1.78837633    
  -9.06440020E-02   1.90284204      -0.00000000       1.39190519       1.78837633    
   0.00000000       0.00000000       0.00000000       1.39190519       1.78837633    
 -0.211146995       1.89326203      -0.00000000       1.39190519       1.78837633    
   0.00000000       0.00000000       0.00000000       1.38831556       1.78895819    
  -9.06440020E-02   1.90284204      -0.00000000       1.38831556       1.78895819    
  -3.02249994E-02   1.90476000      -0.00000000       1.38831556       1.78895819    
   3.02249994E-02   1.90476000      -0.00000000       1.38831556       1.78895819    
 -0.271109998       1.88560998      -0.00000000       1.39947808       1.78716075    
 -0.211146995       1.89326203      -0.00000000       1.39947808       1.78716075    
   0.00000000       0.00000000       0.00000000       1.39947808       1.78716075    
 -0.330799997       1.87605906      -0.00000000       1.39947808       1.78716075    
 -0.507632971       1.83611906      -0.00000000       1.43126297       1.78220689    
 -0.449120998       1.85130095      -0.00000000       1.43126297       1.78220689    
   0.00000000       0.00000000       0.00000000       1.43126297       1.78220689    
 -0.565632999       1.81908906      -0.00000000       1.43126297       1.78220689    
   0.00000000       0.00000000       0.00000000       1.41237628       1.78512263    
 -0.449120998       1.85130095      -0.00000000       1.41237628       1.78512263    
 -0.390157014       1.86461902      -0.00000000       1.41237628       1.78512263    
 -0.330799997       1.87605906      -0.00000000       1.41237628       1.78512263    
 -0.623063982       1.80022705      -0.00000000       1.45776188       1.77824676    
 -0.565632999       1.81908906      -0.00000000       1.45776188       1.77824676    
   0.00000000       0.00000000       0.00000000       1.45776188       1.77824676    
 -0.679867983       1.77955198      -0.00000000       1.45776188       1.77824676    
 -0.845947027       1.70686805      -0.00000000       1.53947473       1.76690841    
 -0.791365981       1.73284900      -0.00000000       1.53947473       1.76690841    
   0.00000000       0.00000000       0.00000000       1.53947473       1.76690841    
 -0.899676025       1.67916906      -0.00000000       1.53947473       1.76690841    
   0.00000000       0.00000000       0.00000000       1.49406970       1.77305424    
 -0.791365981       1.73284900      -0.00000000       1.49406970       1.77305424    
 -0.735987008       1.75708497      -0.00000000       1.49406970       1.77305424    
 -0.679867983       1.77955198      -0.00000000       1.49406970       1.77305424    
 -0.952499986       1.64977801      -0.00000000       1.59338129       1.76006591    
 -0.899676025       1.67916906      -0.00000000       1.59338129       1.76006591    
   0.00000000       0.00000000       0.00000000       1.59338129       1.76006591    
  -1.00436401       1.61872697      -0.00000000       1.59338129       1.76006591    
  -1.15368605       1.51592600      -0.00000000       1.71472538       1.74621141    
  -1.10500801       1.55176699      -0.00000000       1.71472538       1.74621141    
   0.00000000       0.00000000       0.00000000       1.71472538       1.74621141    
  -1.20120299       1.47855902      -0.00000000       1.71472538       1.74621141    
   0.00000000       0.00000000       0.00000000       1.65298367       1.75301373    
  -1.10500801       1.55176699      -0.00000000       1.65298367       1.75301373    
  -1.05521798       1.58604598      -0.00000000       1.65298367       1.75301373    
  -1.00436401       1.61872697      -0.00000000       1.65298367       1.75301373    
  -1.24750996       1.43970299      -0.00000000       1.76948404       1.74055088    
  -1.20120299       1.47855902      -0.00000000       1.76948404       1.74055088    
   0.00000000       0.00000000       0.00000000       1.76948404       1.74055088    
  -1.29255998       1.39939702      -0.00000000       1.76948404       1.74055088    
  -1.41972899       1.27019501      -0.00000000       1.76291394       1.74119210    
  -1.37871301       1.31459999      -0.00000000       1.76291394       1.74119210    
   0.00000000       0.00000000       0.00000000       1.76291394       1.74119210    
  -1.45931494       1.22450995      -0.00000000       1.76291394       1.74119210    
   0.00000000       0.00000000       0.00000000       1.79464889       1.73804903    
  -1.37871301       1.31459999      -0.00000000       1.79464889       1.73804903    
  -1.33631003       1.35768199      -0.00000000       1.79464889       1.73804903    
  -1.29255998       1.39939702      -0.00000000       1.79464889       1.73804903    
  -1.49743104       1.17759299      -0.00000000       1.70163524       1.74758482    
  -1.45931494       1.22450995      -0.00000000       1.70163524       1.74758482    
   0.00000000       0.00000000       0.00000000       1.70163524       1.74758482    
  -1.53403997       1.12949002      -0.00000000       1.70163524       1.74758482    
  -1.63445795      0.978555024      -0.00000000       1.57592738       1.76220608    
  -1.60258806       1.02992105      -0.00000000       1.57592738       1.76220608    
   0.00000000       0.00000000       0.00000000       1.57592738       1.76220608    
  -1.66468298      0.926204979      -0.00000000       1.57592738       1.76220608    
   0.00000000       0.00000000       0.00000000       1.63653731       1.75488102    
  -1.60258806       1.02992105      -0.00000000       1.63653731       1.75488102    
  -1.56910396       1.08024895      -0.00000000       1.63653731       1.75488102    
  -1.53403997       1.12949002      -0.00000000       1.63653731       1.75488102    
  -1.69323206      0.872922003      -0.00000000       1.52293539       1.76908433    
  -1.66468298      0.926204979      -0.00000000       1.52293539       1.76908433    
   0.00000000       0.00000000       0.00000000       1.52293539       1.76908433    
  -1.72007501      0.818759024      -0.00000000       1.52293539       1.76908433    
  -1.79011405      0.651548028      -0.00000000       1.44720447       1.77979386    
  -1.76854098      0.708016992      -0.00000000       1.44720447       1.77979386    
   0.00000000       0.00000000       0.00000000       1.44720447       1.77979386    
  -1.80988598      0.594424009      -0.00000000       1.44720447       1.77979386    
   0.00000000       0.00000000       0.00000000       1.47986257       1.77503884    
  -1.76854098      0.708016992      -0.00000000       1.47986257       1.77503884    
  -1.74518704      0.763773024      -0.00000000       1.47986257       1.77503884    
  -1.72007501      0.818759024      -0.00000000       1.47986257       1.77503884    
  -1.82783401      0.536701024      -0.00000000       1.42334163       1.78340924    
  -1.80988598      0.594424009      -0.00000000       1.42334163       1.78340924    
   0.00000000       0.00000000       0.00000000       1.42334163       1.78340924    
  -1.84394205      0.478437006      -0.00000000       1.42334163       1.78340924    
  -1.88107097      0.300992996      -0.00000000       1.39538157       1.78780854    
  -1.87057400      0.360523999      -0.00000000       1.39538157       1.78780854    
   0.00000000       0.00000000       0.00000000       1.39538157       1.78780854    
  -1.88967395      0.241159007      -0.00000000       1.39538157       1.78780854    
   0.00000000       0.00000000       0.00000000       1.40640187       1.78605247    
  -1.87057400      0.360523999      -0.00000000       1.40640187       1.78605247    
  -1.85819399      0.419692010      -0.00000000       1.40640187       1.78605247    
  -1.84394205      0.478437006      -0.00000000       1.40640187       1.78605247    
  -1.89637399      0.181081995      -0.00000000       1.38905001       1.78883123    
  -1.88967395      0.241159007      -0.00000000       1.38905001       1.78883123    
   0.00000000       0.00000000       0.00000000       1.38905001       1.78883123    
  -1.90116501      0.120823003      -0.00000000       1.38905001       1.78883123    
  -1.90404105      -6.04420006E-02  -0.00000000       1.38665211       1.78922248    
  -1.90499997       0.00000000      -0.00000000       1.38665211       1.78922248    
   0.00000000       0.00000000       0.00000000       1.38665211       1.78922248    
  -1.90116501     -0.120823003      -0.00000000       1.38665211       1.78922248    
   0.00000000       0.00000000       0.00000000       1.38640666       1.78926170    
  -1.90499997       0.00000000      -0.00000000       1.38640666       1.78926170    
  -1.90404105       6.04420006E-02  -0.00000000       1.38640666       1.78926170    
  -1.90116501      0.120823003      -0.00000000       1.38640666       1.78926170    
  -1.89637399     -0.181081995      -0.00000000       1.39037716       1.78861809    
  -1.90116501     -0.120823003      -0.00000000       1.39037716       1.78861809    
   0.00000000       0.00000000       0.00000000       1.39037716       1.78861809    
  -1.88967395     -0.241159007      -0.00000000       1.39037716       1.78861809    
  -1.85819399     -0.419692010      -0.00000000       1.41115034       1.78531075    
  -1.87057400     -0.360523999      -0.00000000       1.41115034       1.78531075    
   0.00000000       0.00000000       0.00000000       1.41115034       1.78531075    
  -1.84394205     -0.478437006      -0.00000000       1.41115034       1.78531075    
   0.00000000       0.00000000       0.00000000       1.39808929       1.78737795    
  -1.87057400     -0.360523999      -0.00000000       1.39808929       1.78737795    
  -1.88107097     -0.300992996      -0.00000000       1.39808929       1.78737795    
  -1.88967395     -0.241159007      -0.00000000       1.39808929       1.78737795    
  -1.82783401     -0.536701024      -0.00000000       1.43021369       1.78236330    
  -1.84394205     -0.478437006      -0.00000000       1.43021369       1.78236330    
   0.00000000       0.00000000       0.00000000       1.43021369       1.78236330    
  -1.80988598     -0.594424009      -0.00000000       1.43021369       1.78236330    
  -1.74518704     -0.763773024      -0.00000000       1.49343729       1.77314019    
  -1.76854098     -0.708016992      -0.00000000       1.49343729       1.77314019    
   0.00000000       0.00000000       0.00000000       1.49343729       1.77314019    
  -1.72007501     -0.818759024      -0.00000000       1.49343729       1.77314019    
   0.00000000       0.00000000       0.00000000       1.45691216       1.77836835    
  -1.76854098     -0.708016992      -0.00000000       1.45691216       1.77836835    
  -1.79011405     -0.651548028      -0.00000000       1.45691216       1.77836835    
  -1.80988598     -0.594424009      -0.00000000       1.45691216       1.77836835    
  -1.69323206     -0.872922003      -0.00000000       1.53907430       1.76695943    
  -1.72007501     -0.818759024      -0.00000000       1.53907430       1.76695943    
   0.00000000       0.00000000       0.00000000       1.53907430       1.76695943    
  -1.66468298     -0.926204979      -0.00000000       1.53907430       1.76695943    
  -1.56910396      -1.08024895      -0.00000000       1.65310121       1.75299978    
  -1.60258806      -1.02992105      -0.00000000       1.65310121       1.75299978    
   0.00000000       0.00000000       0.00000000       1.65310121       1.75299978    
  -1.53403997      -1.12949002      -0.00000000       1.65310121       1.75299978    
   0.00000000       0.00000000       0.00000000       1.59323072       1.76008320    
  -1.60258806      -1.02992105      -0.00000000       1.59323072       1.76008320    
  -1.63445795     -0.978555024      -0.00000000       1.59323072       1.76008320    
  -1.66468298     -0.926204979      -0.00000000       1.59323072       1.76008320    
  -1.49743104      -1.17759299      -0.00000000       1.71512270       1.74616921    
  -1.53403997      -1.12949002      -0.00000000       1.71512270       1.74616921    
   0.00000000       0.00000000       0.00000000       1.71512270       1.74616921    
  -1.45931494      -1.22450995      -0.00000000       1.71512270       1.74616921    
  -1.33631003      -1.35768199      -0.00000000       1.79532790       1.73798478    
  -1.37871301      -1.31459999      -0.00000000       1.79532790       1.73798478    
   0.00000000       0.00000000       0.00000000       1.79532790       1.73798478    
  -1.29255998      -1.39939702      -0.00000000       1.79532790       1.73798478    
   0.00000000       0.00000000       0.00000000       1.77011621       1.74048865    
  -1.37871301      -1.31459999      -0.00000000       1.77011621       1.74048865    
  -1.41972899      -1.27019501      -0.00000000       1.77011621       1.74048865    
  -1.45931494      -1.22450995      -0.00000000       1.77011621       1.74048865    
  -1.24750996      -1.43970299      -0.00000000       1.76356053       1.74112928    
  -1.29255998      -1.39939702      -0.00000000       1.76356053       1.74112928    
   0.00000000       0.00000000       0.00000000       1.76356053       1.74112928    
  -1.20120299      -1.47855902      -0.00000000       1.76356053       1.74112928    
  -1.05521798      -1.58604598      -0.00000000       1.63736963       1.75478661    
  -1.10500801      -1.55176699      -0.00000000       1.63736963       1.75478661    
   0.00000000       0.00000000       0.00000000       1.63736963       1.75478661    
  -1.00436401      -1.61872697      -0.00000000       1.63736963       1.75478661    
   0.00000000       0.00000000       0.00000000       1.70237041       1.74750781    
  -1.10500801      -1.55176699      -0.00000000       1.70237041       1.74750781    
  -1.15368605      -1.51592600      -0.00000000       1.70237041       1.74750781    
  -1.20120299      -1.47855902      -0.00000000       1.70237041       1.74750781    
 -0.952499986      -1.64977801      -0.00000000       1.57684767       1.76209271    
  -1.00436401      -1.61872697      -0.00000000       1.57684767       1.76209271    
   0.00000000       0.00000000       0.00000000       1.57684767       1.76209271    
 -0.899676025      -1.67916906      -0.00000000       1.57684767       1.76209271    
 -0.735987008      -1.75708497      -0.00000000       1.48093343       1.77488899    
 -0.791365981      -1.73284900      -0.00000000       1.48093343       1.77488899    
   0.00000000       0.00000000       0.00000000       1.48093343       1.77488899    
 -0.679867983      -1.77955198      -0.00000000       1.48093343       1.77488899    
   0.00000000       0.00000000       0.00000000       1.52393258       1.76895297    
 -0.791365981      -1.73284900      -0.00000000       1.52393258       1.76895297    
 -0.845947027      -1.70686805      -0.00000000       1.52393258       1.76895297    
 -0.899676025      -1.67916906      -0.00000000       1.52393258       1.76895297    
 -0.623063982      -1.80022705      -0.00000000       1.44834280       1.77962697    
 -0.679867983      -1.77955198      -0.00000000       1.44834280       1.77962697    
   0.00000000       0.00000000       0.00000000       1.44834280       1.77962697    
 -0.565632999      -1.81908906      -0.00000000       1.44834280       1.77962697    
 -0.390157014      -1.86461902      -0.00000000       1.40764105       1.78586018    
 -0.449120998      -1.85130095      -0.00000000       1.40764105       1.78586018    
   0.00000000       0.00000000       0.00000000       1.40764105       1.78586018    
 -0.330799997      -1.87605906      -0.00000000       1.40764105       1.78586018    
   0.00000000       0.00000000       0.00000000       1.42453969       1.78322768    
 -0.449120998      -1.85130095      -0.00000000       1.42453969       1.78322768    
 -0.507632971      -1.83611906      -0.00000000       1.42453969       1.78322768    
 -0.565632999      -1.81908906      -0.00000000       1.42453969       1.78322768    
 -0.271109998      -1.88560998      -0.00000000       1.39665246       1.78760779    
 -0.330799997      -1.87605906      -0.00000000       1.39665246       1.78760779    
   0.00000000       0.00000000       0.00000000       1.39665246       1.78760779    
 -0.211146995      -1.89326203      -0.00000000       1.39665246       1.78760779    
  -3.02249994E-02  -1.90476000      -0.00000000       1.38771892       1.78905261    
  -9.06440020E-02  -1.90284204      -0.00000000       1.38771892       1.78905261    
   0.00000000       0.00000000       0.00000000       1.38771892       1.78905261    
   3.02249994E-02  -1.90476000      -0.00000000       1.38771892       1.78905261    
   0.00000000       0.00000000       0.00000000       1.39033651       1.78862643    
  -9.06440020E-02  -1.90284204      -0.00000000       1.39033651       1.78862643    
 -0.150970995      -1.89900804      -0.00000000       1.39033651       1.78862643    
 -0.211146995      -1.89326203      -0.00000000       1.39033651       1.78862643    
   9.06440020E-02  -1.90284204      -0.00000000       1.38804746       1.78900003    
   3.02249994E-02  -1.90476000      -0.00000000       1.38804746       1.78900003    
   0.00000000       0.00000000       0.00000000       1.38804746       1.78900003    
  0.150970995      -1.89900804      -0.00000000       1.38804746       1.78900003    
  0.330799997      -1.87605906      -0.00000000       1.39954746       1.78714955    
  0.271109998      -1.88560998      -0.00000000       1.39954746       1.78714955    
   0.00000000       0.00000000       0.00000000       1.39954746       1.78714955    
  0.390157014      -1.86461902      -0.00000000       1.39954746       1.78714955    
   0.00000000       0.00000000       0.00000000       1.39179420       1.78839338    
  0.271109998      -1.88560998      -0.00000000       1.39179420       1.78839338    
  0.211146995      -1.89326203      -0.00000000       1.39179420       1.78839338    
  0.150970995      -1.89900804      -0.00000000       1.39179420       1.78839338    
  0.449120998      -1.85130095      -0.00000000       1.41266429       1.78507817    
  0.390157014      -1.86461902      -0.00000000       1.41266429       1.78507817    
   0.00000000       0.00000000       0.00000000       1.41266429       1.78507817    
  0.507632971      -1.83611906      -0.00000000       1.41266429       1.78507817    
  0.679867983      -1.77955198      -0.00000000       1.45859516       1.77812576    
  0.623063982      -1.80022705      -0.00000000       1.45859516       1.77812576    
   0.00000000       0.00000000       0.00000000       1.45859516       1.77812576    
  0.735987008      -1.75708497      -0.00000000       1.45859516       1.77812576    
   0.00000000       0.00000000       0.00000000       1.43180728       1.78212476    
  0.623063982      -1.80022705      -0.00000000       1.43180728       1.78212476    
  0.565632999      -1.81908906      -0.00000000       1.43180728       1.78212476    
  0.507632971      -1.83611906      -0.00000000       1.43180728       1.78212476    
  0.791365981      -1.73284900      -0.00000000       1.49519861       1.77289796    
  0.735987008      -1.75708497      -0.00000000       1.49519861       1.77289796    
   0.00000000       0.00000000       0.00000000       1.49519861       1.77289796    
  0.845947027      -1.70686805      -0.00000000       1.49519861       1.77289796    
   1.00436401      -1.61872697      -0.00000000       1.59516752       1.75984848    
  0.952499986      -1.64977801      -0.00000000       1.59516752       1.75984848    
   0.00000000       0.00000000       0.00000000       1.59516752       1.75984848    
   1.05521798      -1.58604598      -0.00000000       1.59516752       1.75984848    
   0.00000000       0.00000000       0.00000000       1.54093301       1.76671791    
  0.952499986      -1.64977801      -0.00000000       1.54093301       1.76671791    
  0.899676025      -1.67916906      -0.00000000       1.54093301       1.76671791    
  0.845947027      -1.70686805      -0.00000000       1.54093301       1.76671791    
   1.10500801      -1.55176699      -0.00000000       1.65514696       1.75276887    
   1.05521798      -1.58604598      -0.00000000       1.65514696       1.75276887    
   0.00000000       0.00000000       0.00000000       1.65514696       1.75276887    
   1.15368605      -1.51592600      -0.00000000       1.65514696       1.75276887    
   1.29255998      -1.39939702      -0.00000000       1.77277958       1.74022663    
   1.24750996      -1.43970299      -0.00000000       1.77277958       1.74022663    
   0.00000000       0.00000000       0.00000000       1.77277958       1.74022663    
   1.33631003      -1.35768199      -0.00000000       1.77277958       1.74022663    
   0.00000000       0.00000000       0.00000000       1.71733618       1.74593723    
   1.24750996      -1.43970299      -0.00000000       1.71733618       1.74593723    
   1.20120299      -1.47855902      -0.00000000       1.71733618       1.74593723    