 VARIABLES="X" "Y" "Z" "abs(p) (Pa)" "angle(p) (rad)"
ZONE N=    802,E =     800, F=FEPOINT, ET=QUADRILATERAL
   1.90499997       0.00000000      -0.00000000       545.824402       1.60607994    
   1.90404105      -6.04420006E-02  -0.00000000       545.824402       1.60607994    
   0.00000000       0.00000000       0.00000000       545.824402       1.60607994    
   1.90404105       6.04420006E-02  -0.00000000       545.824402       1.60607994    
   1.88967395      0.241159007      -0.00000000       544.822021       1.60547197    
   1.89637399      0.181081995      -0.00000000       544.822021       1.60547197    
   0.00000000       0.00000000       0.00000000       544.822021       1.60547197    
   1.88107097      0.300992996      -0.00000000       544.822021       1.60547197    
   0.00000000       0.00000000       0.00000000       545.644165       1.60592043    
   1.89637399      0.181081995      -0.00000000       545.644165       1.60592043    
   1.90116501      0.120823003      -0.00000000       545.644165       1.60592043    
   1.90404105       6.04420006E-02  -0.00000000       545.644165       1.60592043    
   1.87057400      0.360523999      -0.00000000       543.711426       1.60468113    
   1.88107097      0.300992996      -0.00000000       543.711426       1.60468113    
   0.00000000       0.00000000       0.00000000       543.711426       1.60468113    
   1.85819399      0.419692010      -0.00000000       543.711426       1.60468113    
   1.80988598      0.594424009      -0.00000000       544.727478       1.60138726    
   1.82783401      0.536701024      -0.00000000       544.727478       1.60138726    
   0.00000000       0.00000000       0.00000000       544.727478       1.60138726    
   1.79011405      0.651548028      -0.00000000       544.727478       1.60138726    
   0.00000000       0.00000000       0.00000000       543.485596       1.60334826    
   1.82783401      0.536701024      -0.00000000       543.485596       1.60334826    
   1.84394205      0.478437006      -0.00000000       543.485596       1.60334826    
   1.85819399      0.419692010      -0.00000000       543.485596       1.60334826    
   1.76854098      0.708016992      -0.00000000       548.213684       1.59867632    
   1.79011405      0.651548028      -0.00000000       548.213684       1.59867632    
   0.00000000       0.00000000       0.00000000       548.213684       1.59867632    
   1.74518704      0.763773024      -0.00000000       548.213684       1.59867632    
   1.66468298      0.926204979      -0.00000000       563.916565       1.59085786    
   1.69323206      0.872922003      -0.00000000       563.916565       1.59085786    
   0.00000000       0.00000000       0.00000000       563.916565       1.59085786    
   1.63445795      0.978555024      -0.00000000       563.916565       1.59085786    
   0.00000000       0.00000000       0.00000000       554.586792       1.59515059    
   1.69323206      0.872922003      -0.00000000       554.586792       1.59515059    
   1.72007501      0.818759024      -0.00000000       554.586792       1.59515059    
   1.74518704      0.763773024      -0.00000000       554.586792       1.59515059    
   1.60258806       1.02992105      -0.00000000       575.390503       1.58596718    
   1.63445795      0.978555024      -0.00000000       575.390503       1.58596718    
   0.00000000       0.00000000       0.00000000       575.390503       1.58596718    
   1.56910396       1.08024895      -0.00000000       575.390503       1.58596718    
   1.45931494       1.22450995      -0.00000000       595.900940       1.57571995    
   1.49743104       1.17759299      -0.00000000       595.900940       1.57571995    
   0.00000000       0.00000000       0.00000000       595.900940       1.57571995    
   1.41972899       1.27019501      -0.00000000       595.900940       1.57571995    
   0.00000000       0.00000000       0.00000000       587.249817       1.58076477    
   1.49743104       1.17759299      -0.00000000       587.249817       1.58076477    
   1.53403997       1.12949002      -0.00000000       587.249817       1.58076477    
   1.56910396       1.08024895      -0.00000000       587.249817       1.58076477    
   1.37871301       1.31459999      -0.00000000       588.695496       1.57241416    
   1.41972899       1.27019501      -0.00000000       588.695496       1.57241416    
   0.00000000       0.00000000       0.00000000       588.695496       1.57241416    
   1.33631003       1.35768199      -0.00000000       588.695496       1.57241416    
   1.20120299       1.47855902      -0.00000000       495.643799       1.57552230    
   1.24750996       1.43970299      -0.00000000       495.643799       1.57552230    
   0.00000000       0.00000000       0.00000000       495.643799       1.57552230    
   1.15368605       1.51592600      -0.00000000       495.643799       1.57552230    
   0.00000000       0.00000000       0.00000000       550.228088       1.57288170    
   1.24750996       1.43970299      -0.00000000       550.228088       1.57288170    
   1.29255998       1.39939702      -0.00000000       550.228088       1.57288170    
   1.33631003       1.35768199      -0.00000000       550.228088       1.57288170    
   1.10500801       1.55176699      -0.00000000       438.604919       1.57877731    
   1.15368605       1.51592600      -0.00000000       438.604919       1.57877731    
   0.00000000       0.00000000       0.00000000       438.604919       1.57877731    
   1.05521798       1.58604598      -0.00000000       438.604919       1.57877731    
  0.899676025       1.67916906      -0.00000000       330.701965       1.58555484    
  0.952499986       1.64977801      -0.00000000       330.701965       1.58555484    
   0.00000000       0.00000000       0.00000000       330.701965       1.58555484    
  0.845947027       1.70686805      -0.00000000       330.701965       1.58555484    
   0.00000000       0.00000000       0.00000000       383.025513       1.58221388    
  0.952499986       1.64977801      -0.00000000       383.025513       1.58221388    
   1.00436401       1.61872697      -0.00000000       383.025513       1.58221388    
   1.05521798       1.58604598      -0.00000000       383.025513       1.58221388    
  0.791365981       1.73284900      -0.00000000       281.987396       1.58866847    
  0.845947027       1.70686805      -0.00000000       281.987396       1.58866847    
   0.00000000       0.00000000       0.00000000       281.987396       1.58866847    
  0.735987008       1.75708497      -0.00000000       281.987396       1.58866847    
  0.565632999       1.81908906      -0.00000000       193.115128       1.59435642    
  0.623063982       1.80022705      -0.00000000       193.115128       1.59435642    
   0.00000000       0.00000000       0.00000000       193.115128       1.59435642    
  0.507632971       1.83611906      -0.00000000       193.115128       1.59435642    
   0.00000000       0.00000000       0.00000000       236.360657       1.59155595    
  0.623063982       1.80022705      -0.00000000       236.360657       1.59155595    
  0.679867983       1.77955198      -0.00000000       236.360657       1.59155595    
  0.735987008       1.75708497      -0.00000000       236.360657       1.59155595    
  0.449120998       1.85130095      -0.00000000       151.342133       1.59755242    
  0.507632971       1.83611906      -0.00000000       151.342133       1.59755242    
   0.00000000       0.00000000       0.00000000       151.342133       1.59755242    
  0.390157014       1.86461902      -0.00000000       151.342133       1.59755242    
  0.211146995       1.89326203      -0.00000000       69.9271393       1.61113787    
  0.271109998       1.88560998      -0.00000000       69.9271393       1.61113787    
   0.00000000       0.00000000       0.00000000       69.9271393       1.61113787    
  0.150970995       1.89900804      -0.00000000       69.9271393       1.61113787    
   0.00000000       0.00000000       0.00000000       110.498085       1.60205686    
  0.271109998       1.88560998      -0.00000000       110.498085       1.60205686    
  0.330799997       1.87605906      -0.00000000       110.498085       1.60205686    
  0.390157014       1.86461902      -0.00000000       110.498085       1.60205686    
   9.06440020E-02   1.90284204      -0.00000000       29.6905785       1.64341569    
  0.150970995       1.89900804      -0.00000000       29.6905785       1.64341569    
   0.00000000       0.00000000       0.00000000       29.6905785       1.64341569    
   3.02249994E-02   1.90476000      -0.00000000       29.6905785       1.64341569    
 -0.150970995       1.89900804      -0.00000000       50.7764511      -1.58659554    
  -9.06440020E-02   1.90284204      -0.00000000       50.7764511      -1.58659554    
   0.00000000       0.00000000       0.00000000       50.7764511      -1.58659554    
 -0.211146995       1.89326203      -0.00000000       50.7764511      -1.58659554    
   0.00000000       0.00000000       0.00000000       10.6160202      -1.71013248    
  -9.06440020E-02   1.90284204      -0.00000000       10.6160202      -1.71013248    
  -3.02249994E-02   1.90476000      -0.00000000       10.6160202      -1.71013248    
   3.02249994E-02   1.90476000      -0.00000000       10.6160202      -1.71013248    
 -0.271109998       1.88560998      -0.00000000       91.2428970      -1.57245612    
 -0.211146995       1.89326203      -0.00000000       91.2428970      -1.57245612    
   0.00000000       0.00000000       0.00000000       91.2428970      -1.57245612    
 -0.330799997       1.87605906      -0.00000000       91.2428970      -1.57245612    
 -0.507632971       1.83611906      -0.00000000       173.884460      -1.56509268    
 -0.449120998       1.85130095      -0.00000000       173.884460      -1.56509268    
   0.00000000       0.00000000       0.00000000       173.884460      -1.56509268    
 -0.565632999       1.81908906      -0.00000000       173.884460      -1.56509268    
   0.00000000       0.00000000       0.00000000       132.033615      -1.56726897    
 -0.449120998       1.85130095      -0.00000000       132.033615      -1.56726897    
 -0.390157014       1.86461902      -0.00000000       132.033615      -1.56726897    
 -0.330799997       1.87605906      -0.00000000       132.033615      -1.56726897    
 -0.623063982       1.80022705      -0.00000000       217.204712      -1.56442583    
 -0.565632999       1.81908906      -0.00000000       217.204712      -1.56442583    
   0.00000000       0.00000000       0.00000000       217.204712      -1.56442583    
 -0.679867983       1.77955198      -0.00000000       217.204712      -1.56442583    
 -0.845947027       1.70686805      -0.00000000       311.639801      -1.56609762    
 -0.791365981       1.73284900      -0.00000000       311.639801      -1.56609762    
   0.00000000       0.00000000       0.00000000       311.639801      -1.56609762    
 -0.899676025       1.67916906      -0.00000000       311.639801      -1.56609762    
   0.00000000       0.00000000       0.00000000       262.892487      -1.56485081    
 -0.791365981       1.73284900      -0.00000000       262.892487      -1.56485081    
 -0.735987008       1.75708497      -0.00000000       262.892487      -1.56485081    
 -0.679867983       1.77955198      -0.00000000       262.892487      -1.56485081    
 -0.952499986       1.64977801      -0.00000000       363.495209      -1.56790245    
 -0.899676025       1.67916906      -0.00000000       363.495209      -1.56790245    
   0.00000000       0.00000000       0.00000000       363.495209      -1.56790245    
  -1.00436401       1.61872697      -0.00000000       363.495209      -1.56790245    
  -1.15368605       1.51592600      -0.00000000       472.580902      -1.57215321    
  -1.10500801       1.55176699      -0.00000000       472.580902      -1.57215321    
   0.00000000       0.00000000       0.00000000       472.580902      -1.57215321    
  -1.20120299       1.47855902      -0.00000000       472.580902      -1.57215321    
   0.00000000       0.00000000       0.00000000       417.725433      -1.57001853    
  -1.10500801       1.55176699      -0.00000000       417.725433      -1.57001853    
  -1.05521798       1.58604598      -0.00000000       417.725433      -1.57001853    
  -1.00436401       1.61872697      -0.00000000       417.725433      -1.57001853    
  -1.24750996       1.43970299      -0.00000000       524.531311      -1.57389188    
  -1.20120299       1.47855902      -0.00000000       524.531311      -1.57389188    
   0.00000000       0.00000000       0.00000000       524.531311      -1.57389188    
  -1.29255998       1.39939702      -0.00000000       524.531311      -1.57389188    
  -1.41972899       1.27019501      -0.00000000       567.892090      -1.57022130    
  -1.37871301       1.31459999      -0.00000000       567.892090      -1.57022130    
   0.00000000       0.00000000       0.00000000       567.892090      -1.57022130    
  -1.45931494       1.22450995      -0.00000000       567.892090      -1.57022130    
   0.00000000       0.00000000       0.00000000       561.294739      -1.57381117    
  -1.37871301       1.31459999      -0.00000000       561.294739      -1.57381117    
  -1.33631003       1.35768199      -0.00000000       561.294739      -1.57381117    
  -1.29255998       1.39939702      -0.00000000       561.294739      -1.57381117    
  -1.49743104       1.17759299      -0.00000000       558.822144      -1.56490827    
  -1.45931494       1.22450995      -0.00000000       558.822144      -1.56490827    
   0.00000000       0.00000000       0.00000000       558.822144      -1.56490827    
  -1.53403997       1.12949002      -0.00000000       558.822144      -1.56490827    
  -1.63445795      0.978555024      -0.00000000       536.632874      -1.55441868    
  -1.60258806       1.02992105      -0.00000000       536.632874      -1.55441868    
   0.00000000       0.00000000       0.00000000       536.632874      -1.55441868    
  -1.66468298      0.926204979      -0.00000000       536.632874      -1.55441868    
   0.00000000       0.00000000       0.00000000       547.190369      -1.55947459    
  -1.60258806       1.02992105      -0.00000000       547.190369      -1.55947459    
  -1.56910396       1.08024895      -0.00000000       547.190369      -1.55947459    
  -1.53403997       1.12949002      -0.00000000       547.190369      -1.55947459    
  -1.69323206      0.872922003      -0.00000000       528.781067      -1.55003142    
  -1.66468298      0.926204979      -0.00000000       528.781067      -1.55003142    
   0.00000000       0.00000000       0.00000000       528.781067      -1.55003142    
  -1.72007501      0.818759024      -0.00000000       528.781067      -1.55003142    
  -1.79011405      0.651548028      -0.00000000       521.910950      -1.54366207    
  -1.76854098      0.708016992      -0.00000000       521.910950      -1.54366207    
   0.00000000       0.00000000       0.00000000       521.910950      -1.54366207    
  -1.80988598      0.594424009      -0.00000000       521.910950      -1.54366207    
   0.00000000       0.00000000       0.00000000       524.018372      -1.54644513    
  -1.76854098      0.708016992      -0.00000000       524.018372      -1.54644513    
  -1.74518704      0.763773024      -0.00000000       524.018372      -1.54644513    
  -1.72007501      0.818759024      -0.00000000       524.018372      -1.54644513    
  -1.82783401      0.536701024      -0.00000000       521.805420      -1.54161060    
  -1.80988598      0.594424009      -0.00000000       521.805420      -1.54161060    
   0.00000000       0.00000000       0.00000000       521.805420      -1.54161060    
  -1.84394205      0.478437006      -0.00000000       521.805420      -1.54161060    
  -1.88107097      0.300992996      -0.00000000       524.803650      -1.53924596    
  -1.87057400      0.360523999      -0.00000000       524.803650      -1.53924596    
   0.00000000       0.00000000       0.00000000       524.803650      -1.53924596    
  -1.88967395      0.241159007      -0.00000000       524.803650      -1.53924596    
   0.00000000       0.00000000       0.00000000       523.041321      -1.54017758    
  -1.87057400      0.360523999      -0.00000000       523.041321      -1.54017758    
  -1.85819399      0.419692010      -0.00000000       523.041321      -1.54017758    
  -1.84394205      0.478437006      -0.00000000       523.041321      -1.54017758    
  -1.89637399      0.181081995      -0.00000000       526.194153      -1.53866374    
  -1.88967395      0.241159007      -0.00000000       526.194153      -1.53866374    
   0.00000000       0.00000000       0.00000000       526.194153      -1.53866374    
  -1.90116501      0.120823003      -0.00000000       526.194153      -1.53866374    
  -1.90404105      -6.04420006E-02  -0.00000000       527.076721      -1.53840125    
  -1.90499997       0.00000000      -0.00000000       527.076721      -1.53840125    
   0.00000000       0.00000000       0.00000000       527.076721      -1.53840125    
  -1.90116501     -0.120823003      -0.00000000       527.076721      -1.53840125    
   0.00000000       0.00000000       0.00000000       526.963013      -1.53838623    
  -1.90499997       0.00000000      -0.00000000       526.963013      -1.53838623    
  -1.90404105       6.04420006E-02  -0.00000000       526.963013      -1.53838623    
  -1.90116501      0.120823003      -0.00000000       526.963013      -1.53838623    
  -1.89637399     -0.181081995      -0.00000000       526.475464      -1.53869951    
  -1.90116501     -0.120823003      -0.00000000       526.475464      -1.53869951    
   0.00000000       0.00000000       0.00000000       526.475464      -1.53869951    
  -1.88967395     -0.241159007      -0.00000000       526.475464      -1.53869951    
  -1.85819399     -0.419692010      -0.00000000       523.968506      -1.54029655    
  -1.87057400     -0.360523999      -0.00000000       523.968506      -1.54029655    
   0.00000000       0.00000000       0.00000000       523.968506      -1.54029655    
  -1.84394205     -0.478437006      -0.00000000       523.968506      -1.54029655    
   0.00000000       0.00000000       0.00000000       525.280762      -1.53930664    
  -1.87057400     -0.360523999      -0.00000000       525.280762      -1.53930664    
  -1.88107097     -0.300992996      -0.00000000       525.280762      -1.53930664    
  -1.88967395     -0.241159007      -0.00000000       525.280762      -1.53930664    
  -1.82783401     -0.536701024      -0.00000000       523.619202      -1.54184020    
  -1.84394205     -0.478437006      -0.00000000       523.619202      -1.54184020    
   0.00000000       0.00000000       0.00000000       523.619202      -1.54184020    
  -1.80988598     -0.594424009      -0.00000000       523.619202      -1.54184020    
  -1.74518704     -0.763773024      -0.00000000       527.514282      -1.54684901    
  -1.76854098     -0.708016992      -0.00000000       527.514282      -1.54684901    
   0.00000000       0.00000000       0.00000000       527.514282      -1.54684901    
  -1.72007501     -0.818759024      -0.00000000       527.514282      -1.54684901    
   0.00000000       0.00000000       0.00000000       524.558838      -1.54398787    
  -1.76854098     -0.708016992      -0.00000000       524.558838      -1.54398787    
  -1.79011405     -0.651548028      -0.00000000       524.558838      -1.54398787    
  -1.80988598     -0.594424009      -0.00000000       524.558838      -1.54398787    
  -1.69323206     -0.872922003      -0.00000000       533.166138      -1.55049384    
  -1.72007501     -0.818759024      -0.00000000       533.166138      -1.55049384    
   0.00000000       0.00000000       0.00000000       533.166138      -1.55049384    
  -1.66468298     -0.926204979      -0.00000000       533.166138      -1.55049384    
  -1.56910396      -1.08024895      -0.00000000       551.924011      -1.55982518    
  -1.60258806      -1.02992105      -0.00000000       551.924011      -1.55982518    
   0.00000000       0.00000000       0.00000000       551.924011      -1.55982518    
  -1.53403997      -1.12949002      -0.00000000       551.924011      -1.55982518    
   0.00000000       0.00000000       0.00000000       541.549561      -1.55486989    
  -1.60258806      -1.02992105      -0.00000000       541.549561      -1.55486989    
  -1.63445795     -0.978555024      -0.00000000       541.549561      -1.55486989    
  -1.66468298     -0.926204979      -0.00000000       541.549561      -1.55486989    
  -1.49743104      -1.17759299      -0.00000000       562.656921      -1.56509304    
  -1.53403997      -1.12949002      -0.00000000       562.656921      -1.56509304    
   0.00000000       0.00000000       0.00000000       562.656921      -1.56509304    
  -1.45931494      -1.22450995      -0.00000000       562.656921      -1.56509304    
  -1.33631003      -1.35768199      -0.00000000       561.975525      -1.57371688    
  -1.37871301      -1.31459999      -0.00000000       561.975525      -1.57371688    
   0.00000000       0.00000000       0.00000000       561.975525      -1.57371688    
  -1.29255998      -1.39939702      -0.00000000       561.975525      -1.57371688    
   0.00000000       0.00000000       0.00000000       570.125000      -1.57022035    
  -1.37871301      -1.31459999      -0.00000000       570.125000      -1.57022035    
  -1.41972899      -1.27019501      -0.00000000       570.125000      -1.57022035    
  -1.45931494      -1.22450995      -0.00000000       570.125000      -1.57022035    
  -1.24750996      -1.43970299      -0.00000000       523.477966      -1.57373381    
  -1.29255998      -1.39939702      -0.00000000       523.477966      -1.57373381    
   0.00000000       0.00000000       0.00000000       523.477966      -1.57373381    
  -1.20120299      -1.47855902      -0.00000000       523.477966      -1.57373381    
  -1.05521798      -1.58604598      -0.00000000       413.173157      -1.56954598    
  -1.10500801      -1.55176699      -0.00000000       413.173157      -1.56954598    
   0.00000000       0.00000000       0.00000000       413.173157      -1.56954598    
  -1.00436401      -1.61872697      -0.00000000       413.173157      -1.56954598    
   0.00000000       0.00000000       0.00000000       469.518951      -1.57184982    
  -1.10500801      -1.55176699      -0.00000000       469.518951      -1.57184982    
  -1.15368605      -1.51592600      -0.00000000       469.518951      -1.57184982    
  -1.20120299      -1.47855902      -0.00000000       469.518951      -1.57184982    
 -0.952499986      -1.64977801      -0.00000000       358.208649      -1.56727755    
  -1.00436401      -1.61872697      -0.00000000       358.208649      -1.56727755    
   0.00000000       0.00000000       0.00000000       358.208649      -1.56727755    
 -0.899676025      -1.67916906      -0.00000000       358.208649      -1.56727755    
 -0.735987008      -1.75708497      -0.00000000       258.102692      -1.56408834    
 -0.791365981      -1.73284900      -0.00000000       258.102692      -1.56408834    
   0.00000000       0.00000000       0.00000000       258.102692      -1.56408834    
 -0.679867983      -1.77955198      -0.00000000       258.102692      -1.56408834    
   0.00000000       0.00000000       0.00000000       306.395508      -1.56537831    
 -0.791365981      -1.73284900      -0.00000000       306.395508      -1.56537831    
 -0.845947027      -1.70686805      -0.00000000       306.395508      -1.56537831    
 -0.899676025      -1.67916906      -0.00000000       306.395508      -1.56537831    
 -0.623063982      -1.80022705      -0.00000000       212.819809      -1.56361413    
 -0.679867983      -1.77955198      -0.00000000       212.819809      -1.56361413    
   0.00000000       0.00000000       0.00000000       212.819809      -1.56361413    
 -0.565632999      -1.81908906      -0.00000000       212.819809      -1.56361413    
 -0.390157014      -1.86461902      -0.00000000       128.286942      -1.56632078    
 -0.449120998      -1.85130095      -0.00000000       128.286942      -1.56632078    
   0.00000000       0.00000000       0.00000000       128.286942      -1.56632078    
 -0.330799997      -1.87605906      -0.00000000       128.286942      -1.56632078    
   0.00000000       0.00000000       0.00000000       169.844666      -1.56422365    
 -0.449120998      -1.85130095      -0.00000000       169.844666      -1.56422365    
 -0.507632971      -1.83611906      -0.00000000       169.844666      -1.56422365    
 -0.565632999      -1.81908906      -0.00000000       169.844666      -1.56422365    
 -0.271109998      -1.88560998      -0.00000000       87.6261520      -1.57139254    
 -0.330799997      -1.87605906      -0.00000000       87.6261520      -1.57139254    
   0.00000000       0.00000000       0.00000000       87.6261520      -1.57139254    
 -0.211146995      -1.89326203      -0.00000000       87.6261520      -1.57139254    
  -3.02249994E-02  -1.90476000      -0.00000000       7.14518881      -1.76556361    
  -9.06440020E-02  -1.90284204      -0.00000000       7.14518881      -1.76556361    
   0.00000000       0.00000000       0.00000000       7.14518881      -1.76556361    
   3.02249994E-02  -1.90476000      -0.00000000       7.14518881      -1.76556361    
   0.00000000       0.00000000       0.00000000       47.2034340      -1.58577251    
  -9.06440020E-02  -1.90284204      -0.00000000       47.2034340      -1.58577251    
 -0.150970995      -1.89900804      -0.00000000       47.2034340      -1.58577251    
 -0.211146995      -1.89326203      -0.00000000       47.2034340      -1.58577251    
   9.06440020E-02  -1.90284204      -0.00000000       33.1970825       1.63292849    
   3.02249994E-02  -1.90476000      -0.00000000       33.1970825       1.63292849    
   0.00000000       0.00000000       0.00000000       33.1970825       1.63292849    
  0.150970995      -1.89900804      -0.00000000       33.1970825       1.63292849    
  0.330799997      -1.87605906      -0.00000000       114.188980       1.60012567    
  0.271109998      -1.88560998      -0.00000000       114.188980       1.60012567    
   0.00000000       0.00000000       0.00000000       114.188980       1.60012567    
  0.390157014      -1.86461902      -0.00000000       114.188980       1.60012567    
   0.00000000       0.00000000       0.00000000       73.5429840       1.60780942    
  0.271109998      -1.88560998      -0.00000000       73.5429840       1.60780942    
  0.211146995      -1.89326203      -0.00000000       73.5429840       1.60780942    
  0.150970995      -1.89900804      -0.00000000       73.5429840       1.60780942    
  0.449120998      -1.85130095      -0.00000000       155.204132       1.59613812    
  0.390157014      -1.86461902      -0.00000000       155.204132       1.59613812    
   0.00000000       0.00000000       0.00000000       155.204132       1.59613812    
  0.507632971      -1.83611906      -0.00000000       155.204132       1.59613812    
  0.679867983      -1.77955198      -0.00000000       240.984085       1.59049201    
  0.623063982      -1.80022705      -0.00000000       240.984085       1.59049201    
   0.00000000       0.00000000       0.00000000       240.984085       1.59049201    
  0.735987008      -1.75708497      -0.00000000       240.984085       1.59049201    
   0.00000000       0.00000000       0.00000000       197.323868       1.59316170    
  0.623063982      -1.80022705      -0.00000000       197.323868       1.59316170    
  0.565632999      -1.81908906      -0.00000000       197.323868       1.59316170    
  0.507632971      -1.83611906      -0.00000000       197.323868       1.59316170    
  0.791365981      -1.73284900      -0.00000000       287.074432       1.58769476    
  0.735987008      -1.75708497      -0.00000000       287.074432       1.58769476    
   0.00000000       0.00000000       0.00000000       287.074432       1.58769476    
  0.845947027      -1.70686805      -0.00000000       287.074432       1.58769476    
   1.00436401      -1.61872697      -0.00000000       388.675140       1.58144522    
  0.952499986      -1.64977801      -0.00000000       388.675140       1.58144522    
   0.00000000       0.00000000       0.00000000       388.675140       1.58144522    
   1.05521798      -1.58604598      -0.00000000       388.675140       1.58144522    
   0.00000000       0.00000000       0.00000000       336.272461       1.58466113    
  0.952499986      -1.64977801      -0.00000000       336.272461       1.58466113    
  0.899676025      -1.67916906      -0.00000000       336.272461       1.58466113    
  0.845947027      -1.70686805      -0.00000000       336.272461       1.58466113    
   1.10500801      -1.55176699      -0.00000000       443.539856       1.57819533    
   1.05521798      -1.58604598      -0.00000000       443.539856       1.57819533    
   0.00000000       0.00000000       0.00000000       443.539856       1.57819533    
   1.15368605      -1.51592600      -0.00000000       443.539856       1.57819533    
   1.29255998      -1.39939702      -0.00000000       551.631470       1.57267320    
   1.24750996      -1.43970299      -0.00000000       551.631470       1.57267320    
   0.00000000       0.00000000       0.00000000       551.631470       1.57267320    
   1.33631003      -1.35768199      -0.00000000       551.631470       1.57267320    
   0.00000000       0.00000000       0.00000000       499.082062       1.57514060    
   1.24750996      -1.43970299      -0.00000000       499.082062       1.57514060    
   1.20120299      -1.47855902      -0.00000000       499.082062       1.57514060    