 VARIABLES="X" "Y" "Z" "abs(p) (Pa)" "angle(p) (rad)"
ZONE N=    802,E =     800, F=FEPOINT, ET=QUADRILATERAL
   1.90499997       0.00000000      -0.00000000       1.20166743       1.74291027    
   1.90404105      -6.04420006E-02  -0.00000000       1.20166743       1.74291027    
   0.00000000       0.00000000       0.00000000       1.20166743       1.74291027    
   1.90404105       6.04420006E-02  -0.00000000       1.20166743       1.74291027    
   1.88967395      0.241159007      -0.00000000       1.20932412       1.74179840    
   1.89637399      0.181081995      -0.00000000       1.20932412       1.74179840    
   0.00000000       0.00000000       0.00000000       1.20932412       1.74179840    
   1.88107097      0.300992996      -0.00000000       1.20932412       1.74179840    
   0.00000000       0.00000000       0.00000000       1.20391238       1.74258351    
   1.89637399      0.181081995      -0.00000000       1.20391238       1.74258351    
   1.90116501      0.120823003      -0.00000000       1.20391238       1.74258351    
   1.90404105       6.04420006E-02  -0.00000000       1.20391238       1.74258351    
   1.87057400      0.360523999      -0.00000000       1.21848094       1.74048686    
   1.88107097      0.300992996      -0.00000000       1.21848094       1.74048686    
   0.00000000       0.00000000       0.00000000       1.21848094       1.74048686    
   1.85819399      0.419692010      -0.00000000       1.21848094       1.74048686    
   1.80988598      0.594424009      -0.00000000       1.25507128       1.73544145    
   1.82783401      0.536701024      -0.00000000       1.25507128       1.73544145    
   0.00000000       0.00000000       0.00000000       1.25507128       1.73544145    
   1.79011405      0.651548028      -0.00000000       1.25507128       1.73544145    
   0.00000000       0.00000000       0.00000000       1.23346686       1.73838377    
   1.82783401      0.536701024      -0.00000000       1.23346686       1.73838377    
   1.84394205      0.478437006      -0.00000000       1.23346686       1.73838377    
   1.85819399      0.419692010      -0.00000000       1.23346686       1.73838377    
   1.76854098      0.708016992      -0.00000000       1.28402591       1.73165500    
   1.79011405      0.651548028      -0.00000000       1.28402591       1.73165500    
   0.00000000       0.00000000       0.00000000       1.28402591       1.73165500    
   1.74518704      0.763773024      -0.00000000       1.28402591       1.73165500    
   1.66468298      0.926204979      -0.00000000       1.36542726       1.72187185    
   1.69323206      0.872922003      -0.00000000       1.36542726       1.72187185    
   0.00000000       0.00000000       0.00000000       1.36542726       1.72187185    
   1.63445795      0.978555024      -0.00000000       1.36542726       1.72187185    
   0.00000000       0.00000000       0.00000000       1.32102168       1.72705936    
   1.69323206      0.872922003      -0.00000000       1.32102168       1.72705936    
   1.72007501      0.818759024      -0.00000000       1.32102168       1.72705936    
   1.74518704      0.763773024      -0.00000000       1.32102168       1.72705936    
   1.60258806       1.02992105      -0.00000000       1.41460657       1.71650207    
   1.63445795      0.978555024      -0.00000000       1.41460657       1.71650207    
   0.00000000       0.00000000       0.00000000       1.41460657       1.71650207    
   1.56910396       1.08024895      -0.00000000       1.41460657       1.71650207    
   1.45931494       1.22450995      -0.00000000       1.51001990       1.70705152    
   1.49743104       1.17759299      -0.00000000       1.51001990       1.70705152    
   0.00000000       0.00000000       0.00000000       1.51001990       1.70705152    
   1.41972899       1.27019501      -0.00000000       1.51001990       1.70705152    
   0.00000000       0.00000000       0.00000000       1.46483004       1.71138144    
   1.49743104       1.17759299      -0.00000000       1.46483004       1.71138144    
   1.53403997       1.12949002      -0.00000000       1.46483004       1.71138144    
   1.56910396       1.08024895      -0.00000000       1.46483004       1.71138144    
   1.37871301       1.31459999      -0.00000000       1.53074050       1.70514202    
   1.41972899       1.27019501      -0.00000000       1.53074050       1.70514202    
   0.00000000       0.00000000       0.00000000       1.53074050       1.70514202    
   1.33631003       1.35768199      -0.00000000       1.53074050       1.70514202    
   1.20120299       1.47855902      -0.00000000       1.45252359       1.71258724    
   1.24750996       1.43970299      -0.00000000       1.45252359       1.71258724    
   0.00000000       0.00000000       0.00000000       1.45252359       1.71258724    
   1.15368605       1.51592600      -0.00000000       1.45252359       1.71258724    
   0.00000000       0.00000000       0.00000000       1.50390840       1.70761025    
   1.24750996       1.43970299      -0.00000000       1.50390840       1.70761025    
   1.29255998       1.39939702      -0.00000000       1.50390840       1.70761025    
   1.33631003       1.35768199      -0.00000000       1.50390840       1.70761025    
   1.10500801       1.55176699      -0.00000000       1.39792013       1.71826541    
   1.15368605       1.51592600      -0.00000000       1.39792013       1.71826541    
   0.00000000       0.00000000       0.00000000       1.39792013       1.71826541    
   1.05521798       1.58604598      -0.00000000       1.39792013       1.71826541    
  0.899676025       1.67916906      -0.00000000       1.30228567       1.72934222    
  0.952499986       1.64977801      -0.00000000       1.30228567       1.72934222    
   0.00000000       0.00000000       0.00000000       1.30228567       1.72934222    
  0.845947027       1.70686805      -0.00000000       1.30228567       1.72934222    
   0.00000000       0.00000000       0.00000000       1.34654641       1.72402120    
  0.952499986       1.64977801      -0.00000000       1.34654641       1.72402120    
   1.00436401       1.61872697      -0.00000000       1.34654641       1.72402120    
   1.05521798       1.58604598      -0.00000000       1.34654641       1.72402120    
  0.791365981       1.73284900      -0.00000000       1.26611674       1.73396754    
  0.845947027       1.70686805      -0.00000000       1.26611674       1.73396754    
   0.00000000       0.00000000       0.00000000       1.26611674       1.73396754    
  0.735987008       1.75708497      -0.00000000       1.26611674       1.73396754    
  0.565632999       1.81908906      -0.00000000       1.21737254       1.74063790    
  0.623063982       1.80022705      -0.00000000       1.21737254       1.74063790    
   0.00000000       0.00000000       0.00000000       1.21737254       1.74063790    
  0.507632971       1.83611906      -0.00000000       1.21737254       1.74063790    
   0.00000000       0.00000000       0.00000000       1.23805034       1.73774326    
  0.623063982       1.80022705      -0.00000000       1.23805034       1.73774326    
  0.679867983       1.77955198      -0.00000000       1.23805034       1.73774326    
  0.735987008       1.75708497      -0.00000000       1.23805034       1.73774326    
  0.449120998       1.85130095      -0.00000000       1.20319879       1.74268115    
  0.507632971       1.83611906      -0.00000000       1.20319879       1.74268115    
   0.00000000       0.00000000       0.00000000       1.20319879       1.74268115    
  0.390157014       1.86461902      -0.00000000       1.20319879       1.74268115    
  0.211146995       1.89326203      -0.00000000       1.18826711       1.74488902    
  0.271109998       1.88560998      -0.00000000       1.18826711       1.74488902    
   0.00000000       0.00000000       0.00000000       1.18826711       1.74488902    
  0.150970995       1.89900804      -0.00000000       1.18826711       1.74488902    
   0.00000000       0.00000000       0.00000000       1.19404519       1.74402809    
  0.271109998       1.88560998      -0.00000000       1.19404519       1.74402809    
  0.330799997       1.87605906      -0.00000000       1.19404519       1.74402809    
  0.390157014       1.86461902      -0.00000000       1.19404519       1.74402809    
   9.06440020E-02   1.90284204      -0.00000000       1.18573236       1.74526966    
  0.150970995       1.89900804      -0.00000000       1.18573236       1.74526966    
   0.00000000       0.00000000       0.00000000       1.18573236       1.74526966    
   3.02249994E-02   1.90476000      -0.00000000       1.18573236       1.74526966    
 -0.150970995       1.89900804      -0.00000000       1.18919492       1.74475074    
  -9.06440020E-02   1.90284204      -0.00000000       1.18919492       1.74475074    
   0.00000000       0.00000000       0.00000000       1.18919492       1.74475074    
 -0.211146995       1.89326203      -0.00000000       1.18919492       1.74475074    
   0.00000000       0.00000000       0.00000000       1.18598962       1.74523103    
  -9.06440020E-02   1.90284204      -0.00000000       1.18598962       1.74523103    
  -3.02249994E-02   1.90476000      -0.00000000       1.18598962       1.74523103    
   3.02249994E-02   1.90476000      -0.00000000       1.18598962       1.74523103    
 -0.271109998       1.88560998      -0.00000000       1.19552135       1.74381018    
 -0.211146995       1.89326203      -0.00000000       1.19552135       1.74381018    
   0.00000000       0.00000000       0.00000000       1.19552135       1.74381018    
 -0.330799997       1.87605906      -0.00000000       1.19552135       1.74381018    
 -0.507632971       1.83611906      -0.00000000       1.22227573       1.73994482    
 -0.449120998       1.85130095      -0.00000000       1.22227573       1.73994482    
   0.00000000       0.00000000       0.00000000       1.22227573       1.73994482    
 -0.565632999       1.81908906      -0.00000000       1.22227573       1.73994482    
   0.00000000       0.00000000       0.00000000       1.20591867       1.74228656    
 -0.449120998       1.85130095      -0.00000000       1.20591867       1.74228656    
 -0.390157014       1.86461902      -0.00000000       1.20591867       1.74228656    
 -0.330799997       1.87605906      -0.00000000       1.20591867       1.74228656    
 -0.623063982       1.80022705      -0.00000000       1.24507356       1.73678589    
 -0.565632999       1.81908906      -0.00000000       1.24507356       1.73678589    
   0.00000000       0.00000000       0.00000000       1.24507356       1.73678589    
 -0.679867983       1.77955198      -0.00000000       1.24507356       1.73678589    
 -0.845947027       1.70686805      -0.00000000       1.31302071       1.72802591    
 -0.791365981       1.73284900      -0.00000000       1.31302071       1.72802591    
   0.00000000       0.00000000       0.00000000       1.31302071       1.72802591    
 -0.899676025       1.67916906      -0.00000000       1.31302071       1.72802591    
   0.00000000       0.00000000       0.00000000       1.27506089       1.73280394    
 -0.791365981       1.73284900      -0.00000000       1.27506089       1.73280394    
 -0.735987008       1.75708497      -0.00000000       1.27506089       1.73280394    
 -0.679867983       1.77955198      -0.00000000       1.27506089       1.73280394    
 -0.952499986       1.64977801      -0.00000000       1.35822487       1.72268403    
 -0.899676025       1.67916906      -0.00000000       1.35822487       1.72268403    
   0.00000000       0.00000000       0.00000000       1.35822487       1.72268403    
  -1.00436401       1.61872697      -0.00000000       1.35822487       1.72268403    
  -1.15368605       1.51592600      -0.00000000       1.45918715       1.71193135    
  -1.10500801       1.55176699      -0.00000000       1.45918715       1.71193135    
   0.00000000       0.00000000       0.00000000       1.45918715       1.71193135    
  -1.20120299       1.47855902      -0.00000000       1.45918715       1.71193135    
   0.00000000       0.00000000       0.00000000       1.40826869       1.71716619    
  -1.10500801       1.55176699      -0.00000000       1.40826869       1.71716619    
  -1.05521798       1.58604598      -0.00000000       1.40826869       1.71716619    
  -1.00436401       1.61872697      -0.00000000       1.40826869       1.71716619    
  -1.24750996       1.43970299      -0.00000000       1.50484121       1.70752549    
  -1.20120299       1.47855902      -0.00000000       1.50484121       1.70752549    
   0.00000000       0.00000000       0.00000000       1.50484121       1.70752549    
  -1.29255998       1.39939702      -0.00000000       1.50484121       1.70752549    
  -1.41972899       1.27019501      -0.00000000       1.49929273       1.70803618    
  -1.37871301       1.31459999      -0.00000000       1.49929273       1.70803618    
   0.00000000       0.00000000       0.00000000       1.49929273       1.70803618    
  -1.45931494       1.22450995      -0.00000000       1.49929273       1.70803618    
   0.00000000       0.00000000       0.00000000       1.52581966       1.70558000    
  -1.37871301       1.31459999      -0.00000000       1.52581966       1.70558000    
  -1.33631003       1.35768199      -0.00000000       1.52581966       1.70558000    
  -1.29255998       1.39939702      -0.00000000       1.52581966       1.70558000    
  -1.49743104       1.17759299      -0.00000000       1.44836426       1.71299887    
  -1.45931494       1.22450995      -0.00000000       1.44836426       1.71299887    
   0.00000000       0.00000000       0.00000000       1.44836426       1.71299887    
  -1.53403997       1.12949002      -0.00000000       1.44836426       1.71299887    
  -1.63445795      0.978555024      -0.00000000       1.34317243       1.72440982    
  -1.60258806       1.02992105      -0.00000000       1.34317243       1.72440982    
   0.00000000       0.00000000       0.00000000       1.34317243       1.72440982    
  -1.66468298      0.926204979      -0.00000000       1.34317243       1.72440982    
   0.00000000       0.00000000       0.00000000       1.39417577       1.71866524    
  -1.60258806       1.02992105      -0.00000000       1.39417577       1.71866524    
  -1.56910396       1.08024895      -0.00000000       1.39417577       1.71866524    
  -1.53403997       1.12949002      -0.00000000       1.39417577       1.71866524    
  -1.69323206      0.872922003      -0.00000000       1.29930747       1.72970927    
  -1.66468298      0.926204979      -0.00000000       1.29930747       1.72970927    
   0.00000000       0.00000000       0.00000000       1.29930747       1.72970927    
  -1.72007501      0.818759024      -0.00000000       1.29930747       1.72970927    
  -1.79011405      0.651548028      -0.00000000       1.23574138       1.73805797    
  -1.76854098      0.708016992      -0.00000000       1.23574138       1.73805797    
   0.00000000       0.00000000       0.00000000       1.23574138       1.73805797    
  -1.80988598      0.594424009      -0.00000000       1.23574138       1.73805797    
   0.00000000       0.00000000       0.00000000       1.26352251       1.73430550    
  -1.76854098      0.708016992      -0.00000000       1.26352251       1.73430550    
  -1.74518704      0.763773024      -0.00000000       1.26352251       1.73430550    
  -1.72007501      0.818759024      -0.00000000       1.26352251       1.73430550    
  -1.82783401      0.536701024      -0.00000000       1.21527314       1.74093390    
  -1.80988598      0.594424009      -0.00000000       1.21527314       1.74093390    
   0.00000000       0.00000000       0.00000000       1.21527314       1.74093390    
  -1.84394205      0.478437006      -0.00000000       1.21527314       1.74093390    
  -1.88107097      0.300992996      -0.00000000       1.19227254       1.74428797    
  -1.87057400      0.360523999      -0.00000000       1.19227254       1.74428797    
   0.00000000       0.00000000       0.00000000       1.19227254       1.74428797    
  -1.88967395      0.241159007      -0.00000000       1.19227254       1.74428797    
   0.00000000       0.00000000       0.00000000       1.20128119       1.74295795    
  -1.87057400      0.360523999      -0.00000000       1.20128119       1.74295795    
  -1.85819399      0.419692010      -0.00000000       1.20128119       1.74295795    
  -1.84394205      0.478437006      -0.00000000       1.20128119       1.74295795    
  -1.89637399      0.181081995      -0.00000000       1.18662083       1.74513292    
  -1.88967395      0.241159007      -0.00000000       1.18662083       1.74513292    
   0.00000000       0.00000000       0.00000000       1.18662083       1.74513292    
  -1.90116501      0.120823003      -0.00000000       1.18662083       1.74513292    
  -1.90404105      -6.04420006E-02  -0.00000000       1.18457973       1.74544036    
  -1.90499997       0.00000000      -0.00000000       1.18457973       1.74544036    
   0.00000000       0.00000000       0.00000000       1.18457973       1.74544036    
  -1.90116501     -0.120823003      -0.00000000       1.18457973       1.74544036    
   0.00000000       0.00000000       0.00000000       1.18420386       1.74549675    
  -1.90499997       0.00000000      -0.00000000       1.18420386       1.74549675    
  -1.90404105       6.04420006E-02  -0.00000000       1.18420386       1.74549675    
  -1.90116501      0.120823003      -0.00000000       1.18420386       1.74549675    
  -1.89637399     -0.181081995      -0.00000000       1.18790615       1.74494100    
  -1.90116501     -0.120823003      -0.00000000       1.18790615       1.74494100    
   0.00000000       0.00000000       0.00000000       1.18790615       1.74494100    
  -1.88967395     -0.241159007      -0.00000000       1.18790615       1.74494100    
  -1.85819399     -0.419692010      -0.00000000       1.20491982       1.74243021    
  -1.87057400     -0.360523999      -0.00000000       1.20491982       1.74243021    
   0.00000000       0.00000000       0.00000000       1.20491982       1.74243021    
  -1.84394205     -0.478437006      -0.00000000       1.20491982       1.74243021    
   0.00000000       0.00000000       0.00000000       1.19436955       1.74397850    
  -1.87057400     -0.360523999      -0.00000000       1.19436955       1.74397850    
  -1.88107097     -0.300992996      -0.00000000       1.19436955       1.74397850    
  -1.88967395     -0.241159007      -0.00000000       1.19436955       1.74397850    
  -1.82783401     -0.536701024      -0.00000000       1.22143948       1.74006152    
  -1.84394205     -0.478437006      -0.00000000       1.22143948       1.74006152    
   0.00000000       0.00000000       0.00000000       1.22143948       1.74006152    
  -1.80988598     -0.594424009      -0.00000000       1.22143948       1.74006152    
  -1.74518704     -0.763773024      -0.00000000       1.27456653       1.73286736    
  -1.76854098     -0.708016992      -0.00000000       1.27456653       1.73286736    
   0.00000000       0.00000000       0.00000000       1.27456653       1.73286736    
  -1.72007501     -0.818759024      -0.00000000       1.27456653       1.73286736    
   0.00000000       0.00000000       0.00000000       1.24440193       1.73687613    
  -1.76854098     -0.708016992      -0.00000000       1.24440193       1.73687613    
  -1.79011405     -0.651548028      -0.00000000       1.24440193       1.73687613    
  -1.80988598     -0.594424009      -0.00000000       1.24440193       1.73687613    
  -1.69323206     -0.872922003      -0.00000000       1.31271398       1.72806287    
  -1.72007501     -0.818759024      -0.00000000       1.31271398       1.72806287    
   0.00000000       0.00000000       0.00000000       1.31271398       1.72806287    
  -1.66468298     -0.926204979      -0.00000000       1.31271398       1.72806287    
  -1.56910396      -1.08024895      -0.00000000       1.40838122       1.71715403    
  -1.60258806      -1.02992105      -0.00000000       1.40838122       1.71715403    
   0.00000000       0.00000000       0.00000000       1.40838122       1.71715403    
  -1.53403997      -1.12949002      -0.00000000       1.40838122       1.71715403    
   0.00000000       0.00000000       0.00000000       1.35812247       1.72269535    
  -1.60258806      -1.02992105      -0.00000000       1.35812247       1.72269535    
  -1.63445795     -0.978555024      -0.00000000       1.35812247       1.72269535    
  -1.66468298     -0.926204979      -0.00000000       1.35812247       1.72269535    
  -1.49743104      -1.17759299      -0.00000000       1.45952380       1.71189833    
  -1.53403997      -1.12949002      -0.00000000       1.45952380       1.71189833    
   0.00000000       0.00000000       0.00000000       1.45952380       1.71189833    
  -1.45931494      -1.22450995      -0.00000000       1.45952380       1.71189833    
  -1.33631003      -1.35768199      -0.00000000       1.52638340       1.70552981    
  -1.37871301      -1.31459999      -0.00000000       1.52638340       1.70552981    
   0.00000000       0.00000000       0.00000000       1.52638340       1.70552981    
  -1.29255998      -1.39939702      -0.00000000       1.52638340       1.70552981    
   0.00000000       0.00000000       0.00000000       1.50536680       1.70747721    
  -1.37871301      -1.31459999      -0.00000000       1.50536680       1.70747721    
  -1.41972899      -1.27019501      -0.00000000       1.50536680       1.70747721    
  -1.45931494      -1.22450995      -0.00000000       1.50536680       1.70747721    
  -1.24750996      -1.43970299      -0.00000000       1.49982536       1.70798731    
  -1.29255998      -1.39939702      -0.00000000       1.49982536       1.70798731    
   0.00000000       0.00000000       0.00000000       1.49982536       1.70798731    
  -1.20120299      -1.47855902      -0.00000000       1.49982536       1.70798731    
  -1.05521798      -1.58604598      -0.00000000       1.39485359       1.71859300    
  -1.10500801      -1.55176699      -0.00000000       1.39485359       1.71859300    
   0.00000000       0.00000000       0.00000000       1.39485359       1.71859300    
  -1.00436401      -1.61872697      -0.00000000       1.39485359       1.71859300    
   0.00000000       0.00000000       0.00000000       1.44895816       1.71294034    
  -1.10500801      -1.55176699      -0.00000000       1.44895816       1.71294034    
  -1.15368605      -1.51592600      -0.00000000       1.44895816       1.71294034    
  -1.20120299      -1.47855902      -0.00000000       1.44895816       1.71294034    
 -0.952499986      -1.64977801      -0.00000000       1.34391391       1.72432435    
  -1.00436401      -1.61872697      -0.00000000       1.34391391       1.72432435    
   0.00000000       0.00000000       0.00000000       1.34391391       1.72432435    
 -0.899676025      -1.67916906      -0.00000000       1.34391391       1.72432435    
 -0.735987008      -1.75708497      -0.00000000       1.26438105       1.73419309    
 -0.791365981      -1.73284900      -0.00000000       1.26438105       1.73419309    
   0.00000000       0.00000000       0.00000000       1.26438105       1.73419309    
 -0.679867983      -1.77955198      -0.00000000       1.26438105       1.73419309    
   0.00000000       0.00000000       0.00000000       1.30011356       1.72960985    
 -0.791365981      -1.73284900      -0.00000000       1.30011356       1.72960985    
 -0.845947027      -1.70686805      -0.00000000       1.30011356       1.72960985    
 -0.899676025      -1.67916906      -0.00000000       1.30011356       1.72960985    
 -0.623063982      -1.80022705      -0.00000000       1.23665619       1.73793280    
 -0.679867983      -1.77955198      -0.00000000       1.23665619       1.73793280    
   0.00000000       0.00000000       0.00000000       1.23665619       1.73793280    
 -0.565632999      -1.81908906      -0.00000000       1.23665619       1.73793280    
 -0.390157014      -1.86461902      -0.00000000       1.20230114       1.74281025    
 -0.449120998      -1.85130095      -0.00000000       1.20230114       1.74281025    
   0.00000000       0.00000000       0.00000000       1.20230114       1.74281025    
 -0.330799997      -1.87605906      -0.00000000       1.20230114       1.74281025    
   0.00000000       0.00000000       0.00000000       1.21624851       1.74079573    
 -0.449120998      -1.85130095      -0.00000000       1.21624851       1.74079573    
 -0.507632971      -1.83611906      -0.00000000       1.21624851       1.74079573    
 -0.565632999      -1.81908906      -0.00000000       1.21624851       1.74079573    
 -0.271109998      -1.88560998      -0.00000000       1.19333577       1.74413145    
 -0.330799997      -1.87605906      -0.00000000       1.19333577       1.74413145    
   0.00000000       0.00000000       0.00000000       1.19333577       1.74413145    
 -0.211146995      -1.89326203      -0.00000000       1.19333577       1.74413145    
  -3.02249994E-02  -1.90476000      -0.00000000       1.18530953       1.74533200    
  -9.06440020E-02  -1.90284204      -0.00000000       1.18530953       1.74533200    
   0.00000000       0.00000000       0.00000000       1.18530953       1.74533200    
   3.02249994E-02  -1.90476000      -0.00000000       1.18530953       1.74533200    
   0.00000000       0.00000000       0.00000000       1.18771195       1.74497080    
  -9.06440020E-02  -1.90284204      -0.00000000       1.18771195       1.74497080    
 -0.150970995      -1.89900804      -0.00000000       1.18771195       1.74497080    
 -0.211146995      -1.89326203      -0.00000000       1.18771195       1.74497080    
   9.06440020E-02  -1.90284204      -0.00000000       1.18570065       1.74527371    
   3.02249994E-02  -1.90476000      -0.00000000       1.18570065       1.74527371    
   0.00000000       0.00000000       0.00000000       1.18570065       1.74527371    
  0.150970995      -1.89900804      -0.00000000       1.18570065       1.74527371    
  0.330799997      -1.87605906      -0.00000000       1.19553041       1.74380851    
  0.271109998      -1.88560998      -0.00000000       1.19553041       1.74380851    
   0.00000000       0.00000000       0.00000000       1.19553041       1.74380851    
  0.390157014      -1.86461902      -0.00000000       1.19553041       1.74380851    
   0.00000000       0.00000000       0.00000000       1.18904495       1.74477255    
  0.271109998      -1.88560998      -0.00000000       1.18904495       1.74477255    
  0.211146995      -1.89326203      -0.00000000       1.18904495       1.74477255    
  0.150970995      -1.89900804      -0.00000000       1.18904495       1.74477255    
  0.449120998      -1.85130095      -0.00000000       1.20612872       1.74225581    
  0.390157014      -1.86461902      -0.00000000       1.20612872       1.74225581    
   0.00000000       0.00000000       0.00000000       1.20612872       1.74225581    
  0.507632971      -1.83611906      -0.00000000       1.20612872       1.74225581    
  0.679867983      -1.77955198      -0.00000000       1.24573314       1.73669648    
  0.623063982      -1.80022705      -0.00000000       1.24573314       1.73669648    
   0.00000000       0.00000000       0.00000000       1.24573314       1.73669648    
  0.735987008      -1.75708497      -0.00000000       1.24573314       1.73669648    
   0.00000000       0.00000000       0.00000000       1.22270489       1.73988438    
  0.623063982      -1.80022705      -0.00000000       1.22270489       1.73988438    
  0.565632999      -1.81908906      -0.00000000       1.22270489       1.73988438    
  0.507632971      -1.83611906      -0.00000000       1.22270489       1.73988438    
  0.791365981      -1.73284900      -0.00000000       1.27608550       1.73267186    
  0.735987008      -1.75708497      -0.00000000       1.27608550       1.73267186    
   0.00000000       0.00000000       0.00000000       1.27608550       1.73267186    
  0.845947027      -1.70686805      -0.00000000       1.27608550       1.73267186    
   1.00436401      -1.61872697      -0.00000000       1.35980380       1.72250450    
  0.952499986      -1.64977801      -0.00000000       1.35980380       1.72250450    
   0.00000000       0.00000000       0.00000000       1.35980380       1.72250450    
   1.05521798      -1.58604598      -0.00000000       1.35980380       1.72250450    
   0.00000000       0.00000000       0.00000000       1.31433141       1.72786641    
  0.952499986      -1.64977801      -0.00000000       1.31433141       1.72786641    
  0.899676025      -1.67916906      -0.00000000       1.31433141       1.72786641    
  0.845947027      -1.70686805      -0.00000000       1.31433141       1.72786641    
   1.10500801      -1.55176699      -0.00000000       1.41013253       1.71696913    
   1.05521798      -1.58604598      -0.00000000       1.41013253       1.71696913    
   0.00000000       0.00000000       0.00000000       1.41013253       1.71696913    
   1.15368605      -1.51592600      -0.00000000       1.41013253       1.71696913    
   1.29255998      -1.39939702      -0.00000000       1.50743711       1.70728528    
   1.24750996      -1.43970299      -0.00000000       1.50743711       1.70728528    
   0.00000000       0.00000000       0.00000000       1.50743711       1.70728528    
   1.33631003      -1.35768199      -0.00000000       1.50743711       1.70728528    
   0.00000000       0.00000000       0.00000000       1.46139526       1.71171403    
   1.24750996      -1.43970299      -0.00000000       1.46139526       1.71171403    
   1.20120299      -1.47855902      -0.00000000       1.46139526       1.71171403    