 VARIABLES="X" "Y" "Z" "abs(p) (Pa)" "angle(p) (rad)"
ZONE N=    802,E =     800, F=FEPOINT, ET=QUADRILATERAL
   1.90499997       0.00000000      -0.00000000       4.30580997      -1.59770668    
   1.90404105      -6.04420006E-02  -0.00000000       4.30580997      -1.59770668    
   0.00000000       0.00000000       0.00000000       4.30580997      -1.59770668    
   1.90404105       6.04420006E-02  -0.00000000       4.30580997      -1.59770668    
   1.88967395      0.241159007      -0.00000000       229.478317      -1.57091796    
   1.89637399      0.181081995      -0.00000000       229.478317      -1.57091796    
   0.00000000       0.00000000       0.00000000       229.478317      -1.57091796    
   1.88107097      0.300992996      -0.00000000       229.478317      -1.57091796    
   0.00000000       0.00000000       0.00000000       116.565918      -1.57141066    
   1.89637399      0.181081995      -0.00000000       116.565918      -1.57141066    
   1.90116501      0.120823003      -0.00000000       116.565918      -1.57141066    
   1.90404105       6.04420006E-02  -0.00000000       116.565918      -1.57141066    
   1.87057400      0.360523999      -0.00000000       344.770294      -1.57075536    
   1.88107097      0.300992996      -0.00000000       344.770294      -1.57075536    
   0.00000000       0.00000000       0.00000000       344.770294      -1.57075536    
   1.85819399      0.419692010      -0.00000000       344.770294      -1.57075536    
   1.80988598      0.594424009      -0.00000000       585.305298      -1.57064152    
   1.82783401      0.536701024      -0.00000000       585.305298      -1.57064152    
   0.00000000       0.00000000       0.00000000       585.305298      -1.57064152    
   1.79011405      0.651548028      -0.00000000       585.305298      -1.57064152    
   0.00000000       0.00000000       0.00000000       463.000427      -1.57067907    
   1.82783401      0.536701024      -0.00000000       463.000427      -1.57067907    
   1.84394205      0.478437006      -0.00000000       463.000427      -1.57067907    
   1.85819399      0.419692010      -0.00000000       463.000427      -1.57067907    
   1.76854098      0.708016992      -0.00000000       713.254456      -1.57062495    
   1.79011405      0.651548028      -0.00000000       713.254456      -1.57062495    
   0.00000000       0.00000000       0.00000000       713.254456      -1.57062495    
   1.74518704      0.763773024      -0.00000000       713.254456      -1.57062495    
   1.66468298      0.926204979      -0.00000000       985.364563      -1.57062447    
   1.69323206      0.872922003      -0.00000000       985.364563      -1.57062447    
   0.00000000       0.00000000       0.00000000       985.364563      -1.57062447    
   1.63445795      0.978555024      -0.00000000       985.364563      -1.57062447    
   0.00000000       0.00000000       0.00000000       846.508789      -1.57062054    
   1.69323206      0.872922003      -0.00000000       846.508789      -1.57062054    
   1.72007501      0.818759024      -0.00000000       846.508789      -1.57062054    
   1.74518704      0.763773024      -0.00000000       846.508789      -1.57062054    
   1.60258806       1.02992105      -0.00000000       1127.97217      -1.57063317    
   1.63445795      0.978555024      -0.00000000       1127.97217      -1.57063317    
   0.00000000       0.00000000       0.00000000       1127.97217      -1.57063317    
   1.56910396       1.08024895      -0.00000000       1127.97217      -1.57063317    
   1.45931494       1.22450995      -0.00000000       1408.51074      -1.57065320    
   1.49743104       1.17759299      -0.00000000       1408.51074      -1.57065320    
   0.00000000       0.00000000       0.00000000       1408.51074      -1.57065320    
   1.41972899       1.27019501      -0.00000000       1408.51074      -1.57065320    
   0.00000000       0.00000000       0.00000000       1271.87451      -1.57064426    
   1.49743104       1.17759299      -0.00000000       1271.87451      -1.57064426    
   1.53403997       1.12949002      -0.00000000       1271.87451      -1.57064426    
   1.56910396       1.08024895      -0.00000000       1271.87451      -1.57064426    
   1.37871301       1.31459999      -0.00000000       1509.99109      -1.57064772    
   1.41972899       1.27019501      -0.00000000       1509.99109      -1.57064772    
   0.00000000       0.00000000       0.00000000       1509.99109      -1.57064772    
   1.33631003       1.35768199      -0.00000000       1509.99109      -1.57064772    
   1.20120299       1.47855902      -0.00000000       1532.79199      -1.57056117    
   1.24750996       1.43970299      -0.00000000       1532.79199      -1.57056117    
   0.00000000       0.00000000       0.00000000       1532.79199      -1.57056117    
   1.15368605       1.51592600      -0.00000000       1532.79199      -1.57056117    
   0.00000000       0.00000000       0.00000000       1539.91870      -1.57061124    
   1.24750996       1.43970299      -0.00000000       1539.91870      -1.57061124    
   1.29255998       1.39939702      -0.00000000       1539.91870      -1.57061124    
   1.33631003       1.35768199      -0.00000000       1539.91870      -1.57061124    
   1.10500801       1.55176699      -0.00000000       1519.57727      -1.57051110    
   1.15368605       1.51592600      -0.00000000       1519.57727      -1.57051110    
   0.00000000       0.00000000       0.00000000       1519.57727      -1.57051110    
   1.05521798       1.58604598      -0.00000000       1519.57727      -1.57051110    
  0.899676025       1.67916906      -0.00000000       1500.52454      -1.57042575    
  0.952499986       1.64977801      -0.00000000       1500.52454      -1.57042575    
   0.00000000       0.00000000       0.00000000       1500.52454      -1.57042575    
  0.845947027       1.70686805      -0.00000000       1500.52454      -1.57042575    
   0.00000000       0.00000000       0.00000000       1508.16846      -1.57046545    
  0.952499986       1.64977801      -0.00000000       1508.16846      -1.57046545    
   1.00436401       1.61872697      -0.00000000       1508.16846      -1.57046545    
   1.05521798       1.58604598      -0.00000000       1508.16846      -1.57046545    
  0.791365981       1.73284900      -0.00000000       1497.96631      -1.57039273    
  0.845947027       1.70686805      -0.00000000       1497.96631      -1.57039273    
   0.00000000       0.00000000       0.00000000       1497.96631      -1.57039273    
  0.735987008       1.75708497      -0.00000000       1497.96631      -1.57039273    
  0.565632999       1.81908906      -0.00000000       1505.58032      -1.57034719    
  0.623063982       1.80022705      -0.00000000       1505.58032      -1.57034719    
   0.00000000       0.00000000       0.00000000       1505.58032      -1.57034719    
  0.507632971       1.83611906      -0.00000000       1505.58032      -1.57034719    
   0.00000000       0.00000000       0.00000000       1500.21460      -1.57036686    
  0.623063982       1.80022705      -0.00000000       1500.21460      -1.57036686    
  0.679867983       1.77955198      -0.00000000       1500.21460      -1.57036686    
  0.735987008       1.75708497      -0.00000000       1500.21460      -1.57036686    
  0.449120998       1.85130095      -0.00000000       1512.21826      -1.57033288    
  0.507632971       1.83611906      -0.00000000       1512.21826      -1.57033288    
   0.00000000       0.00000000       0.00000000       1512.21826      -1.57033288    
  0.390157014       1.86461902      -0.00000000       1512.21826      -1.57033288    
  0.211146995       1.89326203      -0.00000000       1525.23865      -1.57031703    
  0.271109998       1.88560998      -0.00000000       1525.23865      -1.57031703    
   0.00000000       0.00000000       0.00000000       1525.23865      -1.57031703    
  0.150970995       1.89900804      -0.00000000       1525.23865      -1.57031703    
   0.00000000       0.00000000       0.00000000       1519.12524      -1.57032323    
  0.271109998       1.88560998      -0.00000000       1519.12524      -1.57032323    
  0.330799997       1.87605906      -0.00000000       1519.12524      -1.57032323    
  0.390157014       1.86461902      -0.00000000       1519.12524      -1.57032323    
   9.06440020E-02   1.90284204      -0.00000000       1529.61353      -1.57031441    
  0.150970995       1.89900804      -0.00000000       1529.61353      -1.57031441    
   0.00000000       0.00000000       0.00000000       1529.61353      -1.57031441    
   3.02249994E-02   1.90476000      -0.00000000       1529.61353      -1.57031441    
 -0.150970995       1.89900804      -0.00000000       1531.69604      -1.57031810    
  -9.06440020E-02   1.90284204      -0.00000000       1531.69604      -1.57031810    
   0.00000000       0.00000000       0.00000000       1531.69604      -1.57031810    
 -0.211146995       1.89326203      -0.00000000       1531.69604      -1.57031810    
   0.00000000       0.00000000       0.00000000       1531.62366      -1.57031453    
  -9.06440020E-02   1.90284204      -0.00000000       1531.62366      -1.57031453    
  -3.02249994E-02   1.90476000      -0.00000000       1531.62366      -1.57031453    
   3.02249994E-02   1.90476000      -0.00000000       1531.62366      -1.57031453    
 -0.271109998       1.88560998      -0.00000000       1530.28040      -1.57032478    
 -0.211146995       1.89326203      -0.00000000       1530.28040      -1.57032478    
   0.00000000       0.00000000       0.00000000       1530.28040      -1.57032478    
 -0.330799997       1.87605906      -0.00000000       1530.28040      -1.57032478    
 -0.507632971       1.83611906      -0.00000000       1527.52942      -1.57035136    
 -0.449120998       1.85130095      -0.00000000       1527.52942      -1.57035136    
   0.00000000       0.00000000       0.00000000       1527.52942      -1.57035136    
 -0.565632999       1.81908906      -0.00000000       1527.52942      -1.57035136    
   0.00000000       0.00000000       0.00000000       1528.69556      -1.57033598    
 -0.449120998       1.85130095      -0.00000000       1528.69556      -1.57033598    
 -0.390157014       1.86461902      -0.00000000       1528.69556      -1.57033598    
 -0.330799997       1.87605906      -0.00000000       1528.69556      -1.57033598    
 -0.623063982       1.80022705      -0.00000000       1528.29102      -1.57037234    
 -0.565632999       1.81908906      -0.00000000       1528.29102      -1.57037234    
   0.00000000       0.00000000       0.00000000       1528.29102      -1.57037234    
 -0.679867983       1.77955198      -0.00000000       1528.29102      -1.57037234    
 -0.845947027       1.70686805      -0.00000000       1541.90051      -1.57043326    
 -0.791365981       1.73284900      -0.00000000       1541.90051      -1.57043326    
   0.00000000       0.00000000       0.00000000       1541.90051      -1.57043326    
 -0.899676025       1.67916906      -0.00000000       1541.90051      -1.57043326    
   0.00000000       0.00000000       0.00000000       1533.11133      -1.57039940    
 -0.791365981       1.73284900      -0.00000000       1533.11133      -1.57039940    
 -0.735987008       1.75708497      -0.00000000       1533.11133      -1.57039940    
 -0.679867983       1.77955198      -0.00000000       1533.11133      -1.57039940    
 -0.952499986       1.64977801      -0.00000000       1554.79993      -1.57047284    
 -0.899676025       1.67916906      -0.00000000       1554.79993      -1.57047284    
   0.00000000       0.00000000       0.00000000       1554.79993      -1.57047284    
  -1.00436401       1.61872697      -0.00000000       1554.79993      -1.57047284    
  -1.15368605       1.51592600      -0.00000000       1585.22913      -1.57056487    
  -1.10500801       1.55176699      -0.00000000       1585.22913      -1.57056487    
   0.00000000       0.00000000       0.00000000       1585.22913      -1.57056487    
  -1.20120299       1.47855902      -0.00000000       1585.22913      -1.57056487    
   0.00000000       0.00000000       0.00000000       1570.01489      -1.57051718    
  -1.10500801       1.55176699      -0.00000000       1570.01489      -1.57051718    
  -1.05521798       1.58604598      -0.00000000       1570.01489      -1.57051718    
  -1.00436401       1.61872697      -0.00000000       1570.01489      -1.57051718    
  -1.24750996       1.43970299      -0.00000000       1591.81421      -1.57061231    
  -1.20120299       1.47855902      -0.00000000       1591.81421      -1.57061231    
   0.00000000       0.00000000       0.00000000       1591.81421      -1.57061231    
  -1.29255998       1.39939702      -0.00000000       1591.81421      -1.57061231    
  -1.41972899       1.27019501      -0.00000000       1455.88831      -1.57064939    
  -1.37871301       1.31459999      -0.00000000       1455.88831      -1.57064939    
   0.00000000       0.00000000       0.00000000       1455.88831      -1.57064939    
  -1.45931494       1.22450995      -0.00000000       1455.88831      -1.57064939    
   0.00000000       0.00000000       0.00000000       1560.89172      -1.57064605    
  -1.37871301       1.31459999      -0.00000000       1560.89172      -1.57064605    
  -1.33631003       1.35768199      -0.00000000       1560.89172      -1.57064605    
  -1.29255998       1.39939702      -0.00000000       1560.89172      -1.57064605    
  -1.49743104       1.17759299      -0.00000000       1313.48413      -1.57063651    
  -1.45931494       1.22450995      -0.00000000       1313.48413      -1.57063651    
   0.00000000       0.00000000       0.00000000       1313.48413      -1.57063651    
  -1.53403997       1.12949002      -0.00000000       1313.48413      -1.57063651    
  -1.63445795      0.978555024      -0.00000000       1021.40234      -1.57060933    
  -1.60258806       1.02992105      -0.00000000       1021.40234      -1.57060933    
   0.00000000       0.00000000       0.00000000       1021.40234      -1.57060933    
  -1.66468298      0.926204979      -0.00000000       1021.40234      -1.57060933    
   0.00000000       0.00000000       0.00000000       1165.90088      -1.57062161    
  -1.60258806       1.02992105      -0.00000000       1165.90088      -1.57062161    
  -1.56910396       1.08024895      -0.00000000       1165.90088      -1.57062161    
  -1.53403997       1.12949002      -0.00000000       1165.90088      -1.57062161    
  -1.69323206      0.872922003      -0.00000000       882.272705      -1.57060146    
  -1.66468298      0.926204979      -0.00000000       882.272705      -1.57060146    
   0.00000000       0.00000000       0.00000000       882.272705      -1.57060146    
  -1.72007501      0.818759024      -0.00000000       882.272705      -1.57060146    
  -1.79011405      0.651548028      -0.00000000       624.246582      -1.57061279    
  -1.76854098      0.708016992      -0.00000000       624.246582      -1.57061279    
   0.00000000       0.00000000       0.00000000       624.246582      -1.57061279    
  -1.80988598      0.594424009      -0.00000000       624.246582      -1.57061279    
   0.00000000       0.00000000       0.00000000       750.105591      -1.57060122    
  -1.76854098      0.708016992      -0.00000000       750.105591      -1.57060122    
  -1.74518704      0.763773024      -0.00000000       750.105591      -1.57060122    
  -1.72007501      0.818759024      -0.00000000       750.105591      -1.57060122    
  -1.82783401      0.536701024      -0.00000000       503.707733      -1.57064116    
  -1.80988598      0.594424009      -0.00000000       503.707733      -1.57064116    
   0.00000000       0.00000000       0.00000000       503.707733      -1.57064116    
  -1.84394205      0.478437006      -0.00000000       503.707733      -1.57064116    
  -1.88107097      0.300992996      -0.00000000       273.099792      -1.57081306    
  -1.87057400      0.360523999      -0.00000000       273.099792      -1.57081306    
   0.00000000       0.00000000       0.00000000       273.099792      -1.57081306    
  -1.88967395      0.241159007      -0.00000000       273.099792      -1.57081306    
   0.00000000       0.00000000       0.00000000       386.913666      -1.57069755    
  -1.87057400      0.360523999      -0.00000000       386.913666      -1.57069755    
  -1.85819399      0.419692010      -0.00000000       386.913666      -1.57069755    
  -1.84394205      0.478437006      -0.00000000       386.913666      -1.57069755    
  -1.89637399      0.181081995      -0.00000000       161.274689      -1.57109773    
  -1.88967395      0.241159007      -0.00000000       161.274689      -1.57109773    
   0.00000000       0.00000000       0.00000000       161.274689      -1.57109773    
  -1.90116501      0.120823003      -0.00000000       161.274689      -1.57109773    
  -1.90404105      -6.04420006E-02  -0.00000000       61.2486763       1.57305682    
  -1.90499997       0.00000000      -0.00000000       61.2486763       1.57305682    
   0.00000000       0.00000000       0.00000000       61.2486763       1.57305682    
  -1.90116501     -0.120823003      -0.00000000       61.2486763       1.57305682    
   0.00000000       0.00000000       0.00000000       49.9957619      -1.57266617    
  -1.90499997       0.00000000      -0.00000000       49.9957619      -1.57266617    
  -1.90404105       6.04420006E-02  -0.00000000       49.9957619      -1.57266617    
  -1.90116501      0.120823003      -0.00000000       49.9957619      -1.57266617    
  -1.89637399     -0.181081995      -0.00000000       172.454071       1.57185733    
  -1.90116501     -0.120823003      -0.00000000       172.454071       1.57185733    
   0.00000000       0.00000000       0.00000000       172.454071       1.57185733    
  -1.88967395     -0.241159007      -0.00000000       172.454071       1.57185733    
  -1.85819399     -0.419692010      -0.00000000       399.566040       1.57146955    
  -1.87057400     -0.360523999      -0.00000000       399.566040       1.57146955    
   0.00000000       0.00000000       0.00000000       399.566040       1.57146955    
  -1.84394205     -0.478437006      -0.00000000       399.566040       1.57146955    
   0.00000000       0.00000000       0.00000000       284.728699       1.57159364    
  -1.87057400     -0.360523999      -0.00000000       284.728699       1.57159364    
  -1.88107097     -0.300992996      -0.00000000       284.728699       1.57159364    
  -1.88967395     -0.241159007      -0.00000000       284.728699       1.57159364    
  -1.82783401     -0.536701024      -0.00000000       517.298462       1.57139242    
  -1.84394205     -0.478437006      -0.00000000       517.298462       1.57139242    
   0.00000000       0.00000000       0.00000000       517.298462       1.57139242    
  -1.80988598     -0.594424009      -0.00000000       517.298462       1.57139242    
  -1.74518704     -0.763773024      -0.00000000       766.358398       1.57128572    
  -1.76854098     -0.708016992      -0.00000000       766.358398       1.57128572    
   0.00000000       0.00000000       0.00000000       766.358398       1.57128572    
  -1.72007501     -0.818759024      -0.00000000       766.358398       1.57128572    
   0.00000000       0.00000000       0.00000000       639.055603       1.57133436    
  -1.76854098     -0.708016992      -0.00000000       639.055603       1.57133436    
  -1.79011405     -0.651548028      -0.00000000       639.055603       1.57133436    
  -1.80988598     -0.594424009      -0.00000000       639.055603       1.57133436    
  -1.69323206     -0.872922003      -0.00000000       899.284485       1.57124126    
  -1.72007501     -0.818759024      -0.00000000       899.284485       1.57124126    
   0.00000000       0.00000000       0.00000000       899.284485       1.57124126    
  -1.66468298     -0.926204979      -0.00000000       899.284485       1.57124126    
  -1.56910396      -1.08024895      -0.00000000       1180.95532       1.57116139    
  -1.60258806      -1.02992105      -0.00000000       1180.95532       1.57116139    
   0.00000000       0.00000000       0.00000000       1180.95532       1.57116139    
  -1.53403997      -1.12949002      -0.00000000       1180.95532       1.57116139    
   0.00000000       0.00000000       0.00000000       1038.15088       1.57119966    
  -1.60258806      -1.02992105      -0.00000000       1038.15088       1.57119966    
  -1.63445795     -0.978555024      -0.00000000       1038.15088       1.57119966    
  -1.66468298     -0.926204979      -0.00000000       1038.15088       1.57119966    
  -1.49743104      -1.17759299      -0.00000000       1325.13330       1.57112741    
  -1.53403997      -1.12949002      -0.00000000       1325.13330       1.57112741    
   0.00000000       0.00000000       0.00000000       1325.13330       1.57112741    
  -1.45931494      -1.22450995      -0.00000000       1325.13330       1.57112741    
  -1.33631003      -1.35768199      -0.00000000       1561.80115       1.57109416    
  -1.37871301      -1.31459999      -0.00000000       1561.80115       1.57109416    
   0.00000000       0.00000000       0.00000000       1561.80115       1.57109416    
  -1.29255998      -1.39939702      -0.00000000       1561.80115       1.57109416    
   0.00000000       0.00000000       0.00000000       1461.86328       1.57110047    
  -1.37871301      -1.31459999      -0.00000000       1461.86328       1.57110047    
  -1.41972899      -1.27019501      -0.00000000       1461.86328       1.57110047    
  -1.45931494      -1.22450995      -0.00000000       1461.86328       1.57110047    
  -1.24750996      -1.43970299      -0.00000000       1587.83704       1.57112730    
  -1.29255998      -1.39939702      -0.00000000       1587.83704       1.57112730    
   0.00000000       0.00000000       0.00000000       1587.83704       1.57112730    
  -1.20120299      -1.47855902      -0.00000000       1587.83704       1.57112730    
  -1.05521798      -1.58604598      -0.00000000       1558.43250       1.57122910    
  -1.10500801      -1.55176699      -0.00000000       1558.43250       1.57122910    
   0.00000000       0.00000000       0.00000000       1558.43250       1.57122910    
  -1.00436401      -1.61872697      -0.00000000       1558.43250       1.57122910    
   0.00000000       0.00000000       0.00000000       1576.19543       1.57117784    
  -1.10500801      -1.55176699      -0.00000000       1576.19543       1.57117784    
  -1.15368605      -1.51592600      -0.00000000       1576.19543       1.57117784    
  -1.20120299      -1.47855902      -0.00000000       1576.19543       1.57117784    
 -0.952499986      -1.64977801      -0.00000000       1542.50659       1.57127607    
  -1.00436401      -1.61872697      -0.00000000       1542.50659       1.57127607    
   0.00000000       0.00000000       0.00000000       1542.50659       1.57127607    
 -0.899676025      -1.67916906      -0.00000000       1542.50659       1.57127607    
 -0.735987008      -1.75708497      -0.00000000       1523.65271       1.57135034    
 -0.791365981      -1.73284900      -0.00000000       1523.65271       1.57135034    
   0.00000000       0.00000000       0.00000000       1523.65271       1.57135034    
 -0.679867983      -1.77955198      -0.00000000       1523.65271       1.57135034    
   0.00000000       0.00000000       0.00000000       1530.45898       1.57131684    
 -0.791365981      -1.73284900      -0.00000000       1530.45898       1.57131684    
 -0.845947027      -1.70686805      -0.00000000       1530.45898       1.57131684    
 -0.899676025      -1.67916906      -0.00000000       1530.45898       1.57131684    
 -0.623063982      -1.80022705      -0.00000000       1521.83533       1.57137644    
 -0.679867983      -1.77955198      -0.00000000       1521.83533       1.57137644    
   0.00000000       0.00000000       0.00000000       1521.83533       1.57137644    
 -0.565632999      -1.81908906      -0.00000000       1521.83533       1.57137644    
 -0.390157014      -1.86461902      -0.00000000       1526.12866       1.57141054    
 -0.449120998      -1.85130095      -0.00000000       1526.12866       1.57141054    
   0.00000000       0.00000000       0.00000000       1526.12866       1.57141054    
 -0.330799997      -1.87605906      -0.00000000       1526.12866       1.57141054    
   0.00000000       0.00000000       0.00000000       1523.29150       1.57139587    
 -0.449120998      -1.85130095      -0.00000000       1523.29150       1.57139587    
 -0.507632971      -1.83611906      -0.00000000       1523.29150       1.57139587    
 -0.565632999      -1.81908906      -0.00000000       1523.29150       1.57139587    
 -0.271109998      -1.88560998      -0.00000000       1529.32324       1.57142007    
 -0.330799997      -1.87605906      -0.00000000       1529.32324       1.57142007    
   0.00000000       0.00000000       0.00000000       1529.32324       1.57142007    
 -0.211146995      -1.89326203      -0.00000000       1529.32324       1.57142007    
  -3.02249994E-02  -1.90476000      -0.00000000       1532.41125       1.57142889    
  -9.06440020E-02  -1.90284204      -0.00000000       1532.41125       1.57142889    
   0.00000000       0.00000000       0.00000000       1532.41125       1.57142889    
   3.02249994E-02  -1.90476000      -0.00000000       1532.41125       1.57142889    
   0.00000000       0.00000000       0.00000000       1531.77490       1.57142615    
  -9.06440020E-02  -1.90284204      -0.00000000       1531.77490       1.57142615    
 -0.150970995      -1.89900804      -0.00000000       1531.77490       1.57142615    
 -0.211146995      -1.89326203      -0.00000000       1531.77490       1.57142615    
   9.06440020E-02  -1.90284204      -0.00000000       1530.69470       1.57142913    
   3.02249994E-02  -1.90476000      -0.00000000       1530.69470       1.57142913    
   0.00000000       0.00000000       0.00000000       1530.69470       1.57142913    
  0.150970995      -1.89900804      -0.00000000       1530.69470       1.57142913    
  0.330799997      -1.87605906      -0.00000000       1522.06702       1.57142019    
  0.271109998      -1.88560998      -0.00000000       1522.06702       1.57142019    
   0.00000000       0.00000000       0.00000000       1522.06702       1.57142019    
  0.390157014      -1.86461902      -0.00000000       1522.06702       1.57142019    
   0.00000000       0.00000000       0.00000000       1527.11328       1.57142627    
  0.271109998      -1.88560998      -0.00000000       1527.11328       1.57142627    
  0.211146995      -1.89326203      -0.00000000       1527.11328       1.57142627    
  0.150970995      -1.89900804      -0.00000000       1527.11328       1.57142627    
  0.449120998      -1.85130095      -0.00000000       1516.78259       1.57140994    
  0.390157014      -1.86461902      -0.00000000       1516.78259       1.57140994    
   0.00000000       0.00000000       0.00000000       1516.78259       1.57140994    
  0.507632971      -1.83611906      -0.00000000       1516.78259       1.57140994    
  0.679867983      -1.77955198      -0.00000000       1508.71008       1.57137465    
  0.623063982      -1.80022705      -0.00000000       1508.71008       1.57137465    
   0.00000000       0.00000000       0.00000000       1508.71008       1.57137465    
  0.735987008      -1.75708497      -0.00000000       1508.71008       1.57137465    
   0.00000000       0.00000000       0.00000000       1511.83325       1.57139540    
  0.623063982      -1.80022705      -0.00000000       1511.83325       1.57139540    
  0.565632999      -1.81908906      -0.00000000       1511.83325       1.57139540    
  0.507632971      -1.83611906      -0.00000000       1511.83325       1.57139540    
  0.791365981      -1.73284900      -0.00000000       1509.49255       1.57134748    
  0.735987008      -1.75708497      -0.00000000       1509.49255       1.57134748    
   0.00000000       0.00000000       0.00000000       1509.49255       1.57134748    
  0.845947027      -1.70686805      -0.00000000       1509.49255       1.57134748    
   1.00436401      -1.61872697      -0.00000000       1522.66992       1.57127273    
  0.952499986      -1.64977801      -0.00000000       1522.66992       1.57127273    
   0.00000000       0.00000000       0.00000000       1522.66992       1.57127273    
   1.05521798      -1.58604598      -0.00000000       1522.66992       1.57127273    
   0.00000000       0.00000000       0.00000000       1514.07971       1.57131350    
  0.952499986      -1.64977801      -0.00000000       1514.07971       1.57131350    
  0.899676025      -1.67916906      -0.00000000       1514.07971       1.57131350    
  0.845947027      -1.70686805      -0.00000000       1514.07971       1.57131350    
   1.10500801      -1.55176699      -0.00000000       1533.50354       1.57122672    
   1.05521798      -1.58604598      -0.00000000       1533.50354       1.57122672    
   0.00000000       0.00000000       0.00000000       1533.50354       1.57122672    
   1.15368605      -1.51592600      -0.00000000       1533.50354       1.57122672    
   1.29255998      -1.39939702      -0.00000000       1546.52539       1.57112849    
   1.24750996      -1.43970299      -0.00000000       1546.52539       1.57112849    
   0.00000000       0.00000000       0.00000000       1546.52539       1.57112849    
   1.33631003      -1.35768199      -0.00000000       1546.52539       1.57112849    
   0.00000000       0.00000000       0.00000000       1544.31909       1.57117677    
   1.24750996      -1.43970299      -0.00000000       1544.31909       1.57117677    
   1.20120299      -1.47855902      -0.00000000       1544.31909       1.57117677    