 VARIABLES="X" "Y" "Z" "abs(p) (Pa)" "angle(p) (rad)"
ZONE N=    802,E =     800, F=FEPOINT, ET=QUADRILATERAL
   1.90499997       0.00000000      -0.00000000       11.2483301      -1.65367806    
   1.90404105      -6.04420006E-02  -0.00000000       11.2483301      -1.65367806    
   0.00000000       0.00000000       0.00000000       11.2483301      -1.65367806    
   1.90404105       6.04420006E-02  -0.00000000       11.2483301      -1.65367806    
   1.88967395      0.241159007      -0.00000000       618.462891      -1.56037629    
   1.89637399      0.181081995      -0.00000000       618.462891      -1.56037629    
   0.00000000       0.00000000       0.00000000       618.462891      -1.56037629    
   1.88107097      0.300992996      -0.00000000       618.462891      -1.56037629    
   0.00000000       0.00000000       0.00000000       314.288818      -1.56178844    
   1.89637399      0.181081995      -0.00000000       314.288818      -1.56178844    
   1.90116501      0.120823003      -0.00000000       314.288818      -1.56178844    
   1.90404105       6.04420006E-02  -0.00000000       314.288818      -1.56178844    
   1.87057400      0.360523999      -0.00000000       926.386169      -1.56036007    
   1.88107097      0.300992996      -0.00000000       926.386169      -1.56036007    
   0.00000000       0.00000000       0.00000000       926.386169      -1.56036007    
   1.85819399      0.419692010      -0.00000000       926.386169      -1.56036007    
   1.80988598      0.594424009      -0.00000000       1572.59302      -1.56259203    
   1.82783401      0.536701024      -0.00000000       1572.59302      -1.56259203    
   0.00000000       0.00000000       0.00000000       1572.59302      -1.56259203    
   1.79011405      0.651548028      -0.00000000       1572.59302      -1.56259203    
   0.00000000       0.00000000       0.00000000       1243.86768      -1.56119287    
   1.82783401      0.536701024      -0.00000000       1243.86768      -1.56119287    
   1.84394205      0.478437006      -0.00000000       1243.86768      -1.56119287    
   1.85819399      0.419692010      -0.00000000       1243.86768      -1.56119287    
   1.76854098      0.708016992      -0.00000000       1920.13879      -1.56472766    
   1.79011405      0.651548028      -0.00000000       1920.13879      -1.56472766    
   0.00000000       0.00000000       0.00000000       1920.13879      -1.56472766    
   1.74518704      0.763773024      -0.00000000       1920.13879      -1.56472766    
   1.66468298      0.926204979      -0.00000000       2692.76782      -1.57091701    
   1.69323206      0.872922003      -0.00000000       2692.76782      -1.57091701    
   0.00000000       0.00000000       0.00000000       2692.76782      -1.57091701    
   1.63445795      0.978555024      -0.00000000       2692.76782      -1.57091701    
   0.00000000       0.00000000       0.00000000       2293.26929      -1.56757057    
   1.69323206      0.872922003      -0.00000000       2293.26929      -1.56757057    
   1.72007501      0.818759024      -0.00000000       2293.26929      -1.56757057    
   1.74518704      0.763773024      -0.00000000       2293.26929      -1.56757057    
   1.60258806       1.02992105      -0.00000000       3112.89062      -1.57448089    
   1.63445795      0.978555024      -0.00000000       3112.89062      -1.57448089    
   0.00000000       0.00000000       0.00000000       3112.89062      -1.57448089    
   1.56910396       1.08024895      -0.00000000       3112.89062      -1.57448089    
   1.45931494       1.22450995      -0.00000000       3944.82690      -1.58068776    
   1.49743104       1.17759299      -0.00000000       3944.82690      -1.58068776    
   0.00000000       0.00000000       0.00000000       3944.82690      -1.58068776    
   1.41972899       1.27019501      -0.00000000       3944.82690      -1.58068776    
   0.00000000       0.00000000       0.00000000       3540.83105      -1.57793665    
   1.49743104       1.17759299      -0.00000000       3540.83105      -1.57793665    
   1.53403997       1.12949002      -0.00000000       3540.83105      -1.57793665    
   1.56910396       1.08024895      -0.00000000       3540.83105      -1.57793665    
   1.37871301       1.31459999      -0.00000000       4225.88086      -1.58080852    
   1.41972899       1.27019501      -0.00000000       4225.88086      -1.58080852    
   0.00000000       0.00000000       0.00000000       4225.88086      -1.58080852    
   1.33631003       1.35768199      -0.00000000       4225.88086      -1.58080852    
   1.20120299       1.47855902      -0.00000000       4173.48975      -1.56860876    
   1.24750996       1.43970299      -0.00000000       4173.48975      -1.56860876    
   0.00000000       0.00000000       0.00000000       4173.48975      -1.56860876    
   1.15368605       1.51592600      -0.00000000       4173.48975      -1.56860876    
   0.00000000       0.00000000       0.00000000       4263.13721      -1.57596600    
   1.24750996       1.43970299      -0.00000000       4263.13721      -1.57596600    
   1.29255998       1.39939702      -0.00000000       4263.13721      -1.57596600    
   1.33631003       1.35768199      -0.00000000       4263.13721      -1.57596600    
   1.10500801       1.55176699      -0.00000000       4063.53784      -1.56097078    
   1.15368605       1.51592600      -0.00000000       4063.53784      -1.56097078    
   0.00000000       0.00000000       0.00000000       4063.53784      -1.56097078    
   1.05521798       1.58604598      -0.00000000       4063.53784      -1.56097078    
  0.899676025       1.67916906      -0.00000000       3889.90405      -1.54755795    
  0.952499986       1.64977801      -0.00000000       3889.90405      -1.54755795    
   0.00000000       0.00000000       0.00000000       3889.90405      -1.54755795    
  0.845947027       1.70686805      -0.00000000       3889.90405      -1.54755795    
   0.00000000       0.00000000       0.00000000       3964.78979      -1.55381453    
  0.952499986       1.64977801      -0.00000000       3964.78979      -1.55381453    
   1.00436401       1.61872697      -0.00000000       3964.78979      -1.55381453    
   1.05521798       1.58604598      -0.00000000       3964.78979      -1.55381453    
  0.791365981       1.73284900      -0.00000000       3844.02881      -1.54247880    
  0.845947027       1.70686805      -0.00000000       3844.02881      -1.54247880    
   0.00000000       0.00000000       0.00000000       3844.02881      -1.54247880    
  0.735987008       1.75708497      -0.00000000       3844.02881      -1.54247880    
  0.565632999       1.81908906      -0.00000000       3819.56030      -1.53571534    
  0.623063982       1.80022705      -0.00000000       3819.56030      -1.53571534    
   0.00000000       0.00000000       0.00000000       3819.56030      -1.53571534    
  0.507632971       1.83611906      -0.00000000       3819.56030      -1.53571534    
   0.00000000       0.00000000       0.00000000       3822.63281      -1.53856766    
  0.623063982       1.80022705      -0.00000000       3822.63281      -1.53856766    
  0.679867983       1.77955198      -0.00000000       3822.63281      -1.53856766    
  0.735987008       1.75708497      -0.00000000       3822.63281      -1.53856766    
  0.449120998       1.85130095      -0.00000000       3829.30786      -1.53376198    
  0.507632971       1.83611906      -0.00000000       3829.30786      -1.53376198    
   0.00000000       0.00000000       0.00000000       3829.30786      -1.53376198    
  0.390157014       1.86461902      -0.00000000       3829.30786      -1.53376198    
  0.211146995       1.89326203      -0.00000000       3859.50757      -1.53179598    
  0.271109998       1.88560998      -0.00000000       3859.50757      -1.53179598    
   0.00000000       0.00000000       0.00000000       3859.50757      -1.53179598    
  0.150970995       1.89900804      -0.00000000       3859.50757      -1.53179598    
   0.00000000       0.00000000       0.00000000       3845.09106      -1.53253138    
  0.271109998       1.88560998      -0.00000000       3845.09106      -1.53253138    
  0.330799997       1.87605906      -0.00000000       3845.09106      -1.53253138    
  0.390157014       1.86461902      -0.00000000       3845.09106      -1.53253138    
   9.06440020E-02   1.90284204      -0.00000000       3869.27686      -1.53145385    
  0.150970995       1.89900804      -0.00000000       3869.27686      -1.53145385    
   0.00000000       0.00000000       0.00000000       3869.27686      -1.53145385    
   3.02249994E-02   1.90476000      -0.00000000       3869.27686      -1.53145385    
 -0.150970995       1.89900804      -0.00000000       3877.07324      -1.53197432    
  -9.06440020E-02   1.90284204      -0.00000000       3877.07324      -1.53197432    
   0.00000000       0.00000000       0.00000000       3877.07324      -1.53197432    
 -0.211146995       1.89326203      -0.00000000       3877.07324      -1.53197432    
   0.00000000       0.00000000       0.00000000       3875.51685      -1.53152144    
  -9.06440020E-02   1.90284204      -0.00000000       3875.51685      -1.53152144    
  -3.02249994E-02   1.90476000      -0.00000000       3875.51685      -1.53152144    
   3.02249994E-02   1.90476000      -0.00000000       3875.51685      -1.53152144    
 -0.271109998       1.88560998      -0.00000000       3874.30713      -1.53282213    
 -0.211146995       1.89326203      -0.00000000       3874.30713      -1.53282213    
   0.00000000       0.00000000       0.00000000       3874.30713      -1.53282213    
 -0.330799997       1.87605906      -0.00000000       3874.30713      -1.53282213    
 -0.507632971       1.83611906      -0.00000000       3879.18408      -1.53635621    
 -0.449120998       1.85130095      -0.00000000       3879.18408      -1.53635621    
   0.00000000       0.00000000       0.00000000       3879.18408      -1.53635621    
 -0.565632999       1.81908906      -0.00000000       3879.18408      -1.53635621    
   0.00000000       0.00000000       0.00000000       3871.93628      -1.53419709    
 -0.449120998       1.85130095      -0.00000000       3871.93628      -1.53419709    
 -0.390157014       1.86461902      -0.00000000       3871.93628      -1.53419709    
 -0.330799997       1.87605906      -0.00000000       3871.93628      -1.53419709    
 -0.623063982       1.80022705      -0.00000000       3899.25854      -1.53937972    
 -0.565632999       1.81908906      -0.00000000       3899.25854      -1.53937972    
   0.00000000       0.00000000       0.00000000       3899.25854      -1.53937972    
 -0.679867983       1.77955198      -0.00000000       3899.25854      -1.53937972    
 -0.845947027       1.70686805      -0.00000000       4003.84033      -1.54860473    
 -0.791365981       1.73284900      -0.00000000       4003.84033      -1.54860473    
   0.00000000       0.00000000       0.00000000       4003.84033      -1.54860473    
 -0.899676025       1.67916906      -0.00000000       4003.84033      -1.54860473    
   0.00000000       0.00000000       0.00000000       3938.67529      -1.54343307    
 -0.791365981       1.73284900      -0.00000000       3938.67529      -1.54343307    
 -0.735987008       1.75708497      -0.00000000       3938.67529      -1.54343307    
 -0.679867983       1.77955198      -0.00000000       3938.67529      -1.54343307    
 -0.952499986       1.64977801      -0.00000000       4094.92407      -1.55480301    
 -0.899676025       1.67916906      -0.00000000       4094.92407      -1.55480301    
   0.00000000       0.00000000       0.00000000       4094.92407      -1.55480301    
  -1.00436401       1.61872697      -0.00000000       4094.92407      -1.55480301    
  -1.15368605       1.51592600      -0.00000000       4321.24902      -1.56908131    
  -1.10500801       1.55176699      -0.00000000       4321.24902      -1.56908131    
   0.00000000       0.00000000       0.00000000       4321.24902      -1.56908131    
  -1.20120299       1.47855902      -0.00000000       4321.24902      -1.56908131    
   0.00000000       0.00000000       0.00000000       4205.14209      -1.56175697    
  -1.10500801       1.55176699      -0.00000000       4205.14209      -1.56175697    
  -1.05521798       1.58604598      -0.00000000       4205.14209      -1.56175697    
  -1.00436401       1.61872697      -0.00000000       4205.14209      -1.56175697    
  -1.24750996       1.43970299      -0.00000000       4410.86768      -1.57607734    
  -1.20120299       1.47855902      -0.00000000       4410.86768      -1.57607734    
   0.00000000       0.00000000       0.00000000       4410.86768      -1.57607734    
  -1.29255998       1.39939702      -0.00000000       4410.86768      -1.57607734    
  -1.41972899       1.27019501      -0.00000000       4079.09180      -1.58039105    
  -1.37871301       1.31459999      -0.00000000       4079.09180      -1.58039105    
   0.00000000       0.00000000       0.00000000       4079.09180      -1.58039105    
  -1.45931494       1.22450995      -0.00000000       4079.09180      -1.58039105    
   0.00000000       0.00000000       0.00000000       4371.31396      -1.58070147    
  -1.37871301       1.31459999      -0.00000000       4371.31396      -1.58070147    
  -1.33631003       1.35768199      -0.00000000       4371.31396      -1.58070147    
  -1.29255998       1.39939702      -0.00000000       4371.31396      -1.58070147    
  -1.49743104       1.17759299      -0.00000000       3657.04419      -1.57730210    
  -1.45931494       1.22450995      -0.00000000       3657.04419      -1.57730210    
   0.00000000       0.00000000       0.00000000       3657.04419      -1.57730210    
  -1.53403997       1.12949002      -0.00000000       3657.04419      -1.57730210    
  -1.63445795      0.978555024      -0.00000000       2787.12891      -1.56952536    
  -1.60258806       1.02992105      -0.00000000       2787.12891      -1.56952536    
   0.00000000       0.00000000       0.00000000       2787.12891      -1.56952536    
  -1.66468298      0.926204979      -0.00000000       2787.12891      -1.56952536    
   0.00000000       0.00000000       0.00000000       3214.89062      -1.57345986    
  -1.60258806       1.02992105      -0.00000000       3214.89062      -1.57345986    
  -1.56910396       1.08024895      -0.00000000       3214.89062      -1.57345986    
  -1.53403997       1.12949002      -0.00000000       3214.89062      -1.57345986    
  -1.69323206      0.872922003      -0.00000000       2387.06836      -1.56589067    
  -1.66468298      0.926204979      -0.00000000       2387.06836      -1.56589067    
   0.00000000       0.00000000       0.00000000       2387.06836      -1.56589067    
  -1.72007501      0.818759024      -0.00000000       2387.06836      -1.56589067    
  -1.79011405      0.651548028      -0.00000000       1676.75757      -1.56056535    
  -1.76854098      0.708016992      -0.00000000       1676.75757      -1.56056535    
   0.00000000       0.00000000       0.00000000       1676.75757      -1.56056535    
  -1.80988598      0.594424009      -0.00000000       1676.75757      -1.56056535    
   0.00000000       0.00000000       0.00000000       2018.71472      -1.56286561    
  -1.76854098      0.708016992      -0.00000000       2018.71472      -1.56286561    
  -1.74518704      0.763773024      -0.00000000       2018.71472      -1.56286561    
  -1.72007501      0.818759024      -0.00000000       2018.71472      -1.56286561    
  -1.82783401      0.536701024      -0.00000000       1354.08240      -1.55900156    
  -1.80988598      0.594424009      -0.00000000       1354.08240      -1.55900156    
   0.00000000       0.00000000       0.00000000       1354.08240      -1.55900156    
  -1.84394205      0.478437006      -0.00000000       1354.08240      -1.55900156    
  -1.88107097      0.300992996      -0.00000000       739.330872      -1.55747020    
  -1.87057400      0.360523999      -0.00000000       739.330872      -1.55747020    
   0.00000000       0.00000000       0.00000000       739.330872      -1.55747020    
  -1.88967395      0.241159007      -0.00000000       739.330872      -1.55747020    
   0.00000000       0.00000000       0.00000000       1043.04956      -1.55799258    
  -1.87057400      0.360523999      -0.00000000       1043.04956      -1.55799258    
  -1.85819399      0.419692010      -0.00000000       1043.04956      -1.55799258    
  -1.84394205      0.478437006      -0.00000000       1043.04956      -1.55799258    
  -1.89637399      0.181081995      -0.00000000       437.047791      -1.55686986    
  -1.88967395      0.241159007      -0.00000000       437.047791      -1.55686986    
   0.00000000       0.00000000       0.00000000       437.047791      -1.55686986    
  -1.90116501      0.120823003      -0.00000000       437.047791      -1.55686986    
  -1.90404105      -6.04420006E-02  -0.00000000       164.999527       1.58190632    
  -1.90499997       0.00000000      -0.00000000       164.999527       1.58190632    
   0.00000000       0.00000000       0.00000000       164.999527       1.58190632    
  -1.90116501     -0.120823003      -0.00000000       164.999527       1.58190632    
   0.00000000       0.00000000       0.00000000       135.678482      -1.55477619    
  -1.90499997       0.00000000      -0.00000000       135.678482      -1.55477619    
  -1.90404105       6.04420006E-02  -0.00000000       135.678482      -1.55477619    
  -1.90116501      0.120823003      -0.00000000       135.678482      -1.55477619    
  -1.89637399     -0.181081995      -0.00000000       466.585205       1.58306003    
  -1.90116501     -0.120823003      -0.00000000       466.585205       1.58306003    
   0.00000000       0.00000000       0.00000000       466.585205       1.58306003    
  -1.88967395     -0.241159007      -0.00000000       466.585205       1.58306003    
  -1.85819399     -0.419692010      -0.00000000       1074.18787       1.58274484    
  -1.87057400     -0.360523999      -0.00000000       1074.18787       1.58274484    
   0.00000000       0.00000000       0.00000000       1074.18787       1.58274484    
  -1.84394205     -0.478437006      -0.00000000       1074.18787       1.58274484    
   0.00000000       0.00000000       0.00000000       769.167419       1.58308017    
  -1.87057400     -0.360523999      -0.00000000       769.167419       1.58308017    
  -1.88107097     -0.300992996      -0.00000000       769.167419       1.58308017    
  -1.88967395     -0.241159007      -0.00000000       769.167419       1.58308017    
  -1.82783401     -0.536701024      -0.00000000       1387.64343       1.58179927    
  -1.84394205     -0.478437006      -0.00000000       1387.64343       1.58179927    
   0.00000000       0.00000000       0.00000000       1387.64343       1.58179927    
  -1.80988598     -0.594424009      -0.00000000       1387.64343       1.58179927    
  -1.74518704     -0.763773024      -0.00000000       2058.38794       1.57799459    
  -1.76854098     -0.708016992      -0.00000000       2058.38794       1.57799459    
   0.00000000       0.00000000       0.00000000       2058.38794       1.57799459    
  -1.72007501     -0.818759024      -0.00000000       2058.38794       1.57799459    
   0.00000000       0.00000000       0.00000000       1712.88293       1.58028007    
  -1.76854098     -0.708016992      -0.00000000       1712.88293       1.58028007    
  -1.79011405     -0.651548028      -0.00000000       1712.88293       1.58028007    
  -1.80988598     -0.594424009      -0.00000000       1712.88293       1.58028007    
  -1.69323206     -0.872922003      -0.00000000       2430.87354       1.57498515    
  -1.72007501     -0.818759024      -0.00000000       2430.87354       1.57498515    
   0.00000000       0.00000000       0.00000000       2430.87354       1.57498515    
  -1.66468298     -0.926204979      -0.00000000       2430.87354       1.57498515    
  -1.56910396      -1.08024895      -0.00000000       3253.72266       1.56769598    
  -1.60258806      -1.02992105      -0.00000000       3253.72266       1.56769598    
   0.00000000       0.00000000       0.00000000       3253.72266       1.56769598    
  -1.53403997      -1.12949002      -0.00000000       3253.72266       1.56769598    
   0.00000000       0.00000000       0.00000000       2831.18018       1.57146084    
  -1.60258806      -1.02992105      -0.00000000       2831.18018       1.57146084    
  -1.63445795     -0.978555024      -0.00000000       2831.18018       1.57146084    
  -1.66468298     -0.926204979      -0.00000000       2831.18018       1.57146084    
  -1.49743104      -1.17759299      -0.00000000       3684.36182       1.56404865    
  -1.53403997      -1.12949002      -0.00000000       3684.36182       1.56404865    
   0.00000000       0.00000000       0.00000000       3684.36182       1.56404865    
  -1.45931494      -1.22450995      -0.00000000       3684.36182       1.56404865    
  -1.33631003      -1.35768199      -0.00000000       4369.28271       1.56086278    
  -1.37871301      -1.31459999      -0.00000000       4369.28271       1.56086278    
   0.00000000       0.00000000       0.00000000       4369.28271       1.56086278    
  -1.29255998      -1.39939702      -0.00000000       4369.28271       1.56086278    
   0.00000000       0.00000000       0.00000000       4090.59131       1.56112134    
  -1.37871301      -1.31459999      -0.00000000       4090.59131       1.56112134    
  -1.41972899      -1.27019501      -0.00000000       4090.59131       1.56112134    
  -1.45931494      -1.22450995      -0.00000000       4090.59131       1.56112134    
  -1.24750996      -1.43970299      -0.00000000       4396.56445       1.56559372    
  -1.29255998      -1.39939702      -0.00000000       4396.56445       1.56559372    
   0.00000000       0.00000000       0.00000000       4396.56445       1.56559372    
  -1.20120299      -1.47855902      -0.00000000       4396.56445       1.56559372    
  -1.05521798      -1.58604598      -0.00000000       4170.91650       1.58039379    
  -1.10500801      -1.55176699      -0.00000000       4170.91650       1.58039379    
   0.00000000       0.00000000       0.00000000       4170.91650       1.58039379    
  -1.00436401      -1.61872697      -0.00000000       4170.91650       1.58039379    
   0.00000000       0.00000000       0.00000000       4294.19727       1.57283878    
  -1.10500801      -1.55176699      -0.00000000       4294.19727       1.57283878    
  -1.15368605      -1.51592600      -0.00000000       4294.19727       1.57283878    
  -1.20120299      -1.47855902      -0.00000000       4294.19727       1.57283878    
 -0.952499986      -1.64977801      -0.00000000       4059.05005       1.58750725    
  -1.00436401      -1.61872697      -0.00000000       4059.05005       1.58750725    
   0.00000000       0.00000000       0.00000000       4059.05005       1.58750725    
 -0.899676025      -1.67916906      -0.00000000       4059.05005       1.58750725    
 -0.735987008      -1.75708497      -0.00000000       3914.18823       1.59884346    
 -0.791365981      -1.73284900      -0.00000000       3914.18823       1.59884346    
   0.00000000       0.00000000       0.00000000       3914.18823       1.59884346    
 -0.679867983      -1.77955198      -0.00000000       3914.18823       1.59884346    
   0.00000000       0.00000000       0.00000000       3971.71216       1.59374702    
 -0.791365981      -1.73284900      -0.00000000       3971.71216       1.59374702    
 -0.845947027      -1.70686805      -0.00000000       3971.71216       1.59374702    
 -0.899676025      -1.67916906      -0.00000000       3971.71216       1.59374702    
 -0.623063982      -1.80022705      -0.00000000       3881.67188       1.60279167    
 -0.679867983      -1.77955198      -0.00000000       3881.67188       1.60279167    
   0.00000000       0.00000000       0.00000000       3881.67188       1.60279167    
 -0.565632999      -1.81908906      -0.00000000       3881.67188       1.60279167    
 -0.390157014      -1.86461902      -0.00000000       3867.77539       1.60770249    
 -0.449120998      -1.85130095      -0.00000000       3867.77539       1.60770249    
   0.00000000       0.00000000       0.00000000       3867.77539       1.60770249    
 -0.330799997      -1.87605906      -0.00000000       3867.77539       1.60770249    
   0.00000000       0.00000000       0.00000000       3868.11597       1.60569155    
 -0.449120998      -1.85130095      -0.00000000       3868.11597       1.60569155    
 -0.507632971      -1.83611906      -0.00000000       3868.11597       1.60569155    
 -0.565632999      -1.81908906      -0.00000000       3868.11597       1.60569155    
 -0.271109998      -1.88560998      -0.00000000       3873.51685       1.60900557    
 -0.330799997      -1.87605906      -0.00000000       3873.51685       1.60900557    
   0.00000000       0.00000000       0.00000000       3873.51685       1.60900557    
 -0.211146995      -1.89326203      -0.00000000       3873.51685       1.60900557    
  -3.02249994E-02  -1.90476000      -0.00000000       3877.07300       1.61026585    
  -9.06440020E-02  -1.90284204      -0.00000000       3877.07300       1.61026585    
   0.00000000       0.00000000       0.00000000       3877.07300       1.61026585    
   3.02249994E-02  -1.90476000      -0.00000000       3877.07300       1.61026585    
   0.00000000       0.00000000       0.00000000       3877.68530       1.60982633    
  -9.06440020E-02  -1.90284204      -0.00000000       3877.68530       1.60982633    
 -0.150970995      -1.89900804      -0.00000000       3877.68530       1.60982633    
 -0.211146995      -1.89326203      -0.00000000       3877.68530       1.60982633    
   9.06440020E-02  -1.90284204      -0.00000000       3872.92603       1.61029291    
   3.02249994E-02  -1.90476000      -0.00000000       3872.92603       1.61029291    
   0.00000000       0.00000000       0.00000000       3872.92603       1.61029291    
  0.150970995      -1.89900804      -0.00000000       3872.92603       1.61029291    
  0.330799997      -1.87605906      -0.00000000       3851.28491       1.60917032    
  0.271109998      -1.88560998      -0.00000000       3851.28491       1.60917032    
   0.00000000       0.00000000       0.00000000       3851.28491       1.60917032    
  0.390157014      -1.86461902      -0.00000000       3851.28491       1.60917032    
   0.00000000       0.00000000       0.00000000       3864.16357       1.60993302    
  0.271109998      -1.88560998      -0.00000000       3864.16357       1.60993302    
  0.211146995      -1.89326203      -0.00000000       3864.16357       1.60993302    
  0.150970995      -1.89900804      -0.00000000       3864.16357       1.60993302    
  0.449120998      -1.85130095      -0.00000000       3839.06201       1.60786319    
  0.390157014      -1.86461902      -0.00000000       3839.06201       1.60786319    
   0.00000000       0.00000000       0.00000000       3839.06201       1.60786319    
  0.507632971      -1.83611906      -0.00000000       3839.06201       1.60786319    
  0.679867983      -1.77955198      -0.00000000       3845.95483       1.60278285    
  0.623063982      -1.80022705      -0.00000000       3845.95483       1.60278285    
   0.00000000       0.00000000       0.00000000       3845.95483       1.60278285    
  0.735987008      -1.75708497      -0.00000000       3845.95483       1.60278285    
   0.00000000       0.00000000       0.00000000       3836.33887       1.60575843    
  0.623063982      -1.80022705      -0.00000000       3836.33887       1.60575843    
  0.565632999      -1.81908906      -0.00000000       3836.33887       1.60575843    
  0.507632971      -1.83611906      -0.00000000       3836.33887       1.60575843    
  0.791365981      -1.73284900      -0.00000000       3874.69946       1.59875441    
  0.735987008      -1.75708497      -0.00000000       3874.69946       1.59875441    
   0.00000000       0.00000000       0.00000000       3874.69946       1.59875441    
  0.845947027      -1.70686805      -0.00000000       3874.69946       1.59875441    
   1.00436401      -1.61872697      -0.00000000       4007.61597       1.58736062    
  0.952499986      -1.64977801      -0.00000000       4007.61597       1.58736062    
   0.00000000       0.00000000       0.00000000       4007.61597       1.58736062    
   1.05521798      -1.58604598      -0.00000000       4007.61597       1.58736062    
   0.00000000       0.00000000       0.00000000       3928.51831       1.59358621    
  0.952499986      -1.64977801      -0.00000000       3928.51831       1.59358621    
  0.899676025      -1.67916906      -0.00000000       3928.51831       1.59358621    
  0.845947027      -1.70686805      -0.00000000       3928.51831       1.59358621    
   1.10500801      -1.55176699      -0.00000000       4105.38721       1.58035135    
   1.05521798      -1.58604598      -0.00000000       4105.38721       1.58035135    
   0.00000000       0.00000000       0.00000000       4105.38721       1.58035135    
   1.15368605      -1.51592600      -0.00000000       4105.38721       1.58035135    
   1.29255998      -1.39939702      -0.00000000       4286.88623       1.56582665    
   1.24750996      -1.43970299      -0.00000000       4286.88623       1.56582665    
   0.00000000       0.00000000       0.00000000       4286.88623       1.56582665    
   1.33631003      -1.35768199      -0.00000000       4286.88623       1.56582665    
   0.00000000       0.00000000       0.00000000       4209.07275       1.57294071    
   1.24750996      -1.43970299      -0.00000000       4209.07275       1.57294071    
   1.20120299      -1.47855902      -0.00000000       4209.07275       1.57294071    