 VARIABLES="X" "Y" "Z" "abs(p) (Pa)" "angle(p) (rad)"
ZONE N=    802,E =     800, F=FEPOINT, ET=QUADRILATERAL
   1.90499997       0.00000000      -0.00000000       542.799683     -0.964047313    
   1.90404105      -6.04420006E-02  -0.00000000       542.799683     -0.964047313    
   0.00000000       0.00000000       0.00000000       542.799683     -0.964047313    
   1.90404105       6.04420006E-02  -0.00000000       542.799683     -0.964047313    
   1.88967395      0.241159007      -0.00000000       541.811646     -0.963658571    
   1.89637399      0.181081995      -0.00000000       541.811646     -0.963658571    
   0.00000000       0.00000000       0.00000000       541.811646     -0.963658571    
   1.88107097      0.300992996      -0.00000000       541.811646     -0.963658571    
   0.00000000       0.00000000       0.00000000       542.570923     -0.963948905    
   1.89637399      0.181081995      -0.00000000       542.570923     -0.963948905    
   1.90116501      0.120823003      -0.00000000       542.570923     -0.963948905    
   1.90404105       6.04420006E-02  -0.00000000       542.570923     -0.963948905    
   1.87057400      0.360523999      -0.00000000       540.931274     -0.963388622    
   1.88107097      0.300992996      -0.00000000       540.931274     -0.963388622    
   0.00000000       0.00000000       0.00000000       540.931274     -0.963388622    
   1.85819399      0.419692010      -0.00000000       540.931274     -0.963388622    
   1.80988598      0.594424009      -0.00000000       541.763977     -0.964412034    
   1.82783401      0.536701024      -0.00000000       541.763977     -0.964412034    
   0.00000000       0.00000000       0.00000000       541.763977     -0.964412034    
   1.79011405      0.651548028      -0.00000000       541.763977     -0.964412034    
   0.00000000       0.00000000       0.00000000       540.609741     -0.963481247    
   1.82783401      0.536701024      -0.00000000       540.609741     -0.963481247    
   1.84394205      0.478437006      -0.00000000       540.609741     -0.963481247    
   1.85819399      0.419692010      -0.00000000       540.609741     -0.963481247    
   1.76854098      0.708016992      -0.00000000       544.644531     -0.966233492    
   1.79011405      0.651548028      -0.00000000       544.644531     -0.966233492    
   0.00000000       0.00000000       0.00000000       544.644531     -0.966233492    
   1.74518704      0.763773024      -0.00000000       544.644531     -0.966233492    
   1.66468298      0.926204979      -0.00000000       557.762756     -0.973225892    
   1.69323206      0.872922003      -0.00000000       557.762756     -0.973225892    
   0.00000000       0.00000000       0.00000000       557.762756     -0.973225892    
   1.63445795      0.978555024      -0.00000000       557.762756     -0.973225892    
   0.00000000       0.00000000       0.00000000       549.952454     -0.969215035    
   1.69323206      0.872922003      -0.00000000       549.952454     -0.969215035    
   1.72007501      0.818759024      -0.00000000       549.952454     -0.969215035    
   1.74518704      0.763773024      -0.00000000       549.952454     -0.969215035    
   1.60258806       1.02992105      -0.00000000       567.604431     -0.977759540    
   1.63445795      0.978555024      -0.00000000       567.604431     -0.977759540    
   0.00000000       0.00000000       0.00000000       567.604431     -0.977759540    
   1.56910396       1.08024895      -0.00000000       567.604431     -0.977759540    
   1.45931494       1.22450995      -0.00000000       584.634216     -0.983759999    
   1.49743104       1.17759299      -0.00000000       584.634216     -0.983759999    
   0.00000000       0.00000000       0.00000000       584.634216     -0.983759999    
   1.41972899       1.27019501      -0.00000000       584.634216     -0.983759999    
   0.00000000       0.00000000       0.00000000       577.616516     -0.981797516    
   1.49743104       1.17759299      -0.00000000       577.616516     -0.981797516    
   1.53403997       1.12949002      -0.00000000       577.616516     -0.981797516    
   1.56910396       1.08024895      -0.00000000       577.616516     -0.981797516    
   1.37871301       1.31459999      -0.00000000       576.822998     -0.977863431    
   1.41972899       1.27019501      -0.00000000       576.822998     -0.977863431    
   0.00000000       0.00000000       0.00000000       576.822998     -0.977863431    
   1.33631003       1.35768199      -0.00000000       576.822998     -0.977863431    
   1.20120299       1.47855902      -0.00000000       488.019104     -0.917104244    
   1.24750996       1.43970299      -0.00000000       488.019104     -0.917104244    
   0.00000000       0.00000000       0.00000000       488.019104     -0.917104244    
   1.15368605       1.51592600      -0.00000000       488.019104     -0.917104244    
   0.00000000       0.00000000       0.00000000       539.616943     -0.954892039    
   1.24750996       1.43970299      -0.00000000       539.616943     -0.954892039    
   1.29255998       1.39939702      -0.00000000       539.616943     -0.954892039    
   1.33631003       1.35768199      -0.00000000       539.616943     -0.954892039    
   1.10500801       1.55176699      -0.00000000       435.413269     -0.867288828    
   1.15368605       1.51592600      -0.00000000       435.413269     -0.867288828    
   0.00000000       0.00000000       0.00000000       435.413269     -0.867288828    
   1.05521798       1.58604598      -0.00000000       435.413269     -0.867288828    
  0.899676025       1.67916906      -0.00000000       341.354858     -0.725382030    
  0.952499986       1.64977801      -0.00000000       341.354858     -0.725382030    
   0.00000000       0.00000000       0.00000000       341.354858     -0.725382030    
  0.845947027       1.70686805      -0.00000000       341.354858     -0.725382030    
   0.00000000       0.00000000       0.00000000       385.784576     -0.804060936    
  0.952499986       1.64977801      -0.00000000       385.784576     -0.804060936    
   1.00436401       1.61872697      -0.00000000       385.784576     -0.804060936    
   1.05521798       1.58604598      -0.00000000       385.784576     -0.804060936    
  0.791365981       1.73284900      -0.00000000       302.809875     -0.628212750    
  0.845947027       1.70686805      -0.00000000       302.809875     -0.628212750    
   0.00000000       0.00000000       0.00000000       302.809875     -0.628212750    
  0.735987008       1.75708497      -0.00000000       302.809875     -0.628212750    
  0.565632999       1.81908906      -0.00000000       245.984741     -0.367974967    
  0.623063982       1.80022705      -0.00000000       245.984741     -0.367974967    
   0.00000000       0.00000000       0.00000000       245.984741     -0.367974967    
  0.507632971       1.83611906      -0.00000000       245.984741     -0.367974967    
   0.00000000       0.00000000       0.00000000       270.845428     -0.509790540    
  0.623063982       1.80022705      -0.00000000       270.845428     -0.509790540    
  0.679867983       1.77955198      -0.00000000       270.845428     -0.509790540    
  0.735987008       1.75708497      -0.00000000       270.845428     -0.509790540    
  0.449120998       1.85130095      -0.00000000       228.897232     -0.203872904    
  0.507632971       1.83611906      -0.00000000       228.897232     -0.203872904    
   0.00000000       0.00000000       0.00000000       228.897232     -0.203872904    
  0.390157014       1.86461902      -0.00000000       228.897232     -0.203872904    
  0.211146995       1.89326203      -0.00000000       220.214142      0.164551094    
  0.271109998       1.88560998      -0.00000000       220.214142      0.164551094    
   0.00000000       0.00000000       0.00000000       220.214142      0.164551094    
  0.150970995       1.89900804      -0.00000000       220.214142      0.164551094    
   0.00000000       0.00000000       0.00000000       220.165741      -2.22155377E-02
  0.271109998       1.88560998      -0.00000000       220.165741      -2.22155377E-02
  0.330799997       1.87605906      -0.00000000       220.165741      -2.22155377E-02
  0.390157014       1.86461902      -0.00000000       220.165741      -2.22155377E-02
   9.06440020E-02   1.90284204      -0.00000000       228.690445      0.341709852    
  0.150970995       1.89900804      -0.00000000       228.690445      0.341709852    
   0.00000000       0.00000000       0.00000000       228.690445      0.341709852    
   3.02249994E-02   1.90476000      -0.00000000       228.690445      0.341709852    
 -0.150970995       1.89900804      -0.00000000       266.522461      0.632923841    
  -9.06440020E-02   1.90284204      -0.00000000       266.522461      0.632923841    
   0.00000000       0.00000000       0.00000000       266.522461      0.632923841    
 -0.211146995       1.89326203      -0.00000000       266.522461      0.632923841    
   0.00000000       0.00000000       0.00000000       244.506424      0.499169588    
  -9.06440020E-02   1.90284204      -0.00000000       244.506424      0.499169588    
  -3.02249994E-02   1.90476000      -0.00000000       244.506424      0.499169588    
   3.02249994E-02   1.90476000      -0.00000000       244.506424      0.499169588    
 -0.271109998       1.88560998      -0.00000000       293.578735      0.742595434    
 -0.211146995       1.89326203      -0.00000000       293.578735      0.742595434    
   0.00000000       0.00000000       0.00000000       293.578735      0.742595434    
 -0.330799997       1.87605906      -0.00000000       293.578735      0.742595434    
 -0.507632971       1.83611906      -0.00000000       359.387665      0.901272178    
 -0.449120998       1.85130095      -0.00000000       359.387665      0.901272178    
   0.00000000       0.00000000       0.00000000       359.387665      0.901272178    
 -0.565632999       1.81908906      -0.00000000       359.387665      0.901272178    
   0.00000000       0.00000000       0.00000000       324.661804      0.830687225    
 -0.449120998       1.85130095      -0.00000000       324.661804      0.830687225    
 -0.390157014       1.86461902      -0.00000000       324.661804      0.830687225    
 -0.330799997       1.87605906      -0.00000000       324.661804      0.830687225    
 -0.623063982       1.80022705      -0.00000000       397.950562      0.958034158    
 -0.565632999       1.81908906      -0.00000000       397.950562      0.958034158    
   0.00000000       0.00000000       0.00000000       397.950562      0.958034158    
 -0.679867983       1.77955198      -0.00000000       397.950562      0.958034158    
 -0.845947027       1.70686805      -0.00000000       486.029907       1.03971243    
 -0.791365981       1.73284900      -0.00000000       486.029907       1.03971243    
   0.00000000       0.00000000       0.00000000       486.029907       1.03971243    
 -0.899676025       1.67916906      -0.00000000       486.029907       1.03971243    
   0.00000000       0.00000000       0.00000000       440.077606       1.00339973    
 -0.791365981       1.73284900      -0.00000000       440.077606       1.00339973    
 -0.735987008       1.75708497      -0.00000000       440.077606       1.00339973    
 -0.679867983       1.77955198      -0.00000000       440.077606       1.00339973    
 -0.952499986       1.64977801      -0.00000000       535.556519       1.06856871    
 -0.899676025       1.67916906      -0.00000000       535.556519       1.06856871    
   0.00000000       0.00000000       0.00000000       535.556519       1.06856871    
  -1.00436401       1.61872697      -0.00000000       535.556519       1.06856871    
  -1.15368605       1.51592600      -0.00000000       641.255737       1.10908532    
  -1.10500801       1.55176699      -0.00000000       641.255737       1.10908532    
   0.00000000       0.00000000       0.00000000       641.255737       1.10908532    
  -1.20120299       1.47855902      -0.00000000       641.255737       1.10908532    
   0.00000000       0.00000000       0.00000000       587.990356       1.09135187    
  -1.10500801       1.55176699      -0.00000000       587.990356       1.09135187    
  -1.05521798       1.58604598      -0.00000000       587.990356       1.09135187    
  -1.00436401       1.61872697      -0.00000000       587.990356       1.09135187    
  -1.24750996       1.43970299      -0.00000000       692.022156       1.12261510    
  -1.20120299       1.47855902      -0.00000000       692.022156       1.12261510    
   0.00000000       0.00000000       0.00000000       692.022156       1.12261510    
  -1.29255998       1.39939702      -0.00000000       692.022156       1.12261510    
  -1.41972899       1.27019501      -0.00000000       735.575928       1.13797772    
  -1.37871301       1.31459999      -0.00000000       735.575928       1.13797772    
   0.00000000       0.00000000       0.00000000       735.575928       1.13797772    
  -1.45931494       1.22450995      -0.00000000       735.575928       1.13797772    
   0.00000000       0.00000000       0.00000000       728.344421       1.13213587    
  -1.37871301       1.31459999      -0.00000000       728.344421       1.13213587    
  -1.33631003       1.35768199      -0.00000000       728.344421       1.13213587    
  -1.29255998       1.39939702      -0.00000000       728.344421       1.13213587    
  -1.49743104       1.17759299      -0.00000000       727.822937       1.14190352    
  -1.45931494       1.22450995      -0.00000000       727.822937       1.14190352    
   0.00000000       0.00000000       0.00000000       727.822937       1.14190352    
  -1.53403997       1.12949002      -0.00000000       727.822937       1.14190352    
  -1.63445795      0.978555024      -0.00000000       708.182495       1.14731097    
  -1.60258806       1.02992105      -0.00000000       708.182495       1.14731097    
   0.00000000       0.00000000       0.00000000       708.182495       1.14731097    
  -1.66468298      0.926204979      -0.00000000       708.182495       1.14731097    
   0.00000000       0.00000000       0.00000000       717.559753       1.14491642    
  -1.60258806       1.02992105      -0.00000000       717.559753       1.14491642    
  -1.56910396       1.08024895      -0.00000000       717.559753       1.14491642    
  -1.53403997       1.12949002      -0.00000000       717.559753       1.14491642    
  -1.69323206      0.872922003      -0.00000000       701.481323       1.14933062    
  -1.66468298      0.926204979      -0.00000000       701.481323       1.14933062    
   0.00000000       0.00000000       0.00000000       701.481323       1.14933062    
  -1.72007501      0.818759024      -0.00000000       701.481323       1.14933062    
  -1.79011405      0.651548028      -0.00000000       695.614075       1.15254116    
  -1.76854098      0.708016992      -0.00000000       695.614075       1.15254116    
   0.00000000       0.00000000       0.00000000       695.614075       1.15254116    
  -1.80988598      0.594424009      -0.00000000       695.614075       1.15254116    
   0.00000000       0.00000000       0.00000000       697.343201       1.15105653    
  -1.76854098      0.708016992      -0.00000000       697.343201       1.15105653    
  -1.74518704      0.763773024      -0.00000000       697.343201       1.15105653    
  -1.72007501      0.818759024      -0.00000000       697.343201       1.15105653    
  -1.82783401      0.536701024      -0.00000000       695.703308       1.15380621    
  -1.80988598      0.594424009      -0.00000000       695.703308       1.15380621    
   0.00000000       0.00000000       0.00000000       695.703308       1.15380621    
  -1.84394205      0.478437006      -0.00000000       695.703308       1.15380621    
  -1.88107097      0.300992996      -0.00000000       698.480164       1.15563822    
  -1.87057400      0.360523999      -0.00000000       698.480164       1.15563822    
   0.00000000       0.00000000       0.00000000       698.480164       1.15563822    
  -1.88967395      0.241159007      -0.00000000       698.480164       1.15563822    
   0.00000000       0.00000000       0.00000000       696.922241       1.15484762    
  -1.87057400      0.360523999      -0.00000000       696.922241       1.15484762    
  -1.85819399      0.419692010      -0.00000000       696.922241       1.15484762    
  -1.84394205      0.478437006      -0.00000000       696.922241       1.15484762    
  -1.89637399      0.181081995      -0.00000000       699.859192       1.15617001    
  -1.88967395      0.241159007      -0.00000000       699.859192       1.15617001    
   0.00000000       0.00000000       0.00000000       699.859192       1.15617001    
  -1.90116501      0.120823003      -0.00000000       699.859192       1.15617001    
  -1.90404105      -6.04420006E-02  -0.00000000       700.817627       1.15641749    
  -1.90499997       0.00000000      -0.00000000       700.817627       1.15641749    
   0.00000000       0.00000000       0.00000000       700.817627       1.15641749    
  -1.90116501     -0.120823003      -0.00000000       700.817627       1.15641749    
   0.00000000       0.00000000       0.00000000       700.772461       1.15643513    
  -1.90499997       0.00000000      -0.00000000       700.772461       1.15643513    
  -1.90404105       6.04420006E-02  -0.00000000       700.772461       1.15643513    
  -1.90116501      0.120823003      -0.00000000       700.772461       1.15643513    
  -1.89637399     -0.181081995      -0.00000000       700.123413       1.15612781    
  -1.90116501     -0.120823003      -0.00000000       700.123413       1.15612781    
   0.00000000       0.00000000       0.00000000       700.123413       1.15612781    
  -1.88967395     -0.241159007      -0.00000000       700.123413       1.15612781    
  -1.85819399     -0.419692010      -0.00000000       698.059326       1.15479982    
  -1.87057400     -0.360523999      -0.00000000       698.059326       1.15479982    
   0.00000000       0.00000000       0.00000000       698.059326       1.15479982    
  -1.84394205     -0.478437006      -0.00000000       698.059326       1.15479982    
   0.00000000       0.00000000       0.00000000       699.088135       1.15558410    
  -1.87057400     -0.360523999      -0.00000000       699.088135       1.15558410    
  -1.88107097     -0.300992996      -0.00000000       699.088135       1.15558410    
  -1.88967395     -0.241159007      -0.00000000       699.088135       1.15558410    
  -1.82783401     -0.536701024      -0.00000000       697.543518       1.15378499    
  -1.84394205     -0.478437006      -0.00000000       697.543518       1.15378499    
   0.00000000       0.00000000       0.00000000       697.543518       1.15378499    
  -1.80988598     -0.594424009      -0.00000000       697.543518       1.15378499    
  -1.74518704     -0.763773024      -0.00000000       701.028625       1.15114129    
  -1.76854098     -0.708016992      -0.00000000       701.028625       1.15114129    
   0.00000000       0.00000000       0.00000000       701.028625       1.15114129    
  -1.72007501     -0.818759024      -0.00000000       701.028625       1.15114129    
   0.00000000       0.00000000       0.00000000       698.437439       1.15257716    
  -1.76854098     -0.708016992      -0.00000000       698.437439       1.15257716    
  -1.79011405     -0.651548028      -0.00000000       698.437439       1.15257716    
  -1.80988598     -0.594424009      -0.00000000       698.437439       1.15257716    
  -1.69323206     -0.872922003      -0.00000000       705.938843       1.14945734    
  -1.72007501     -0.818759024      -0.00000000       705.938843       1.14945734    
   0.00000000       0.00000000       0.00000000       705.938843       1.14945734    
  -1.66468298     -0.926204979      -0.00000000       705.938843       1.14945734    
  -1.56910396      -1.08024895      -0.00000000       722.512390       1.14498425    
  -1.60258806      -1.02992105      -0.00000000       722.512390       1.14498425    
   0.00000000       0.00000000       0.00000000       722.512390       1.14498425    
  -1.53403997      -1.12949002      -0.00000000       722.512390       1.14498425    
   0.00000000       0.00000000       0.00000000       713.301819       1.14746797    
  -1.60258806      -1.02992105      -0.00000000       713.301819       1.14746797    
  -1.63445795     -0.978555024      -0.00000000       713.301819       1.14746797    
  -1.66468298     -0.926204979      -0.00000000       713.301819       1.14746797    
  -1.49743104      -1.17759299      -0.00000000       731.688538       1.14182591    
  -1.53403997      -1.12949002      -0.00000000       731.688538       1.14182591    
   0.00000000       0.00000000       0.00000000       731.688538       1.14182591    
  -1.45931494      -1.22450995      -0.00000000       731.688538       1.14182591    
  -1.33631003      -1.35768199      -0.00000000       728.808594       1.13157773    
  -1.37871301      -1.31459999      -0.00000000       728.808594       1.13157773    
   0.00000000       0.00000000       0.00000000       728.808594       1.13157773    
  -1.29255998      -1.39939702      -0.00000000       728.808594       1.13157773    
   0.00000000       0.00000000       0.00000000       737.702332       1.13768578    
  -1.37871301      -1.31459999      -0.00000000       737.702332       1.13768578    
  -1.41972899      -1.27019501      -0.00000000       737.702332       1.13768578    
  -1.45931494      -1.22450995      -0.00000000       737.702332       1.13768578    
  -1.24750996      -1.43970299      -0.00000000       690.684814       1.12166882    
  -1.29255998      -1.39939702      -0.00000000       690.684814       1.12166882    
   0.00000000       0.00000000       0.00000000       690.684814       1.12166882    
  -1.20120299      -1.47855902      -0.00000000       690.684814       1.12166882    
  -1.05521798      -1.58604598      -0.00000000       583.171692       1.08917499    
  -1.10500801      -1.55176699      -0.00000000       583.171692       1.08917499    
   0.00000000       0.00000000       0.00000000       583.171692       1.08917499    
  -1.00436401      -1.61872697      -0.00000000       583.171692       1.08917499    
   0.00000000       0.00000000       0.00000000       637.879028       1.10758018    
  -1.10500801      -1.55176699      -0.00000000       637.879028       1.10758018    
  -1.15368605      -1.51592600      -0.00000000       637.879028       1.10758018    
  -1.20120299      -1.47855902      -0.00000000       637.879028       1.10758018    
 -0.952499986      -1.64977801      -0.00000000       530.218628       1.06566381    
  -1.00436401      -1.61872697      -0.00000000       530.218628       1.06566381    
   0.00000000       0.00000000       0.00000000       530.218628       1.06566381    
 -0.899676025      -1.67916906      -0.00000000       530.218628       1.06566381    
 -0.735987008      -1.75708497      -0.00000000       435.279358      0.998829365    
 -0.791365981      -1.73284900      -0.00000000       435.279358      0.998829365    
   0.00000000       0.00000000       0.00000000       435.279358      0.998829365    
 -0.679867983      -1.77955198      -0.00000000       435.279358      0.998829365    
   0.00000000       0.00000000       0.00000000       480.835266       1.03597903    
 -0.791365981      -1.73284900      -0.00000000       480.835266       1.03597903    
 -0.845947027      -1.70686805      -0.00000000       480.835266       1.03597903    
 -0.899676025      -1.67916906      -0.00000000       480.835266       1.03597903    
 -0.623063982      -1.80022705      -0.00000000       393.693176      0.952540576    
 -0.679867983      -1.77955198      -0.00000000       393.693176      0.952540576    
   0.00000000       0.00000000       0.00000000       393.693176      0.952540576    
 -0.565632999      -1.81908906      -0.00000000       393.693176      0.952540576    
 -0.390157014      -1.86461902      -0.00000000       321.633057      0.822980344    
 -0.449120998      -1.85130095      -0.00000000       321.633057      0.822980344    
   0.00000000       0.00000000       0.00000000       321.633057      0.822980344    
 -0.330799997      -1.87605906      -0.00000000       321.633057      0.822980344    
   0.00000000       0.00000000       0.00000000       355.848022      0.894843519    
 -0.449120998      -1.85130095      -0.00000000       355.848022      0.894843519    
 -0.507632971      -1.83611906      -0.00000000       355.848022      0.894843519    
 -0.565632999      -1.81908906      -0.00000000       355.848022      0.894843519    
 -0.271109998      -1.88560998      -0.00000000       290.912048      0.732984006    
 -0.330799997      -1.87605906      -0.00000000       290.912048      0.732984006    
   0.00000000       0.00000000       0.00000000       290.912048      0.732984006    
 -0.211146995      -1.89326203      -0.00000000       290.912048      0.732984006    
  -3.02249994E-02  -1.90476000      -0.00000000       242.819473      0.485952318    
  -9.06440020E-02  -1.90284204      -0.00000000       242.819473      0.485952318    
   0.00000000       0.00000000       0.00000000       242.819473      0.485952318    
   3.02249994E-02  -1.90476000      -0.00000000       242.819473      0.485952318    
   0.00000000       0.00000000       0.00000000       264.306824      0.621434212    
  -9.06440020E-02  -1.90284204      -0.00000000       264.306824      0.621434212    
 -0.150970995      -1.89900804      -0.00000000       264.306824      0.621434212    
 -0.211146995      -1.89326203      -0.00000000       264.306824      0.621434212    
   9.06440020E-02  -1.90284204      -0.00000000       227.527649      0.326536983    
   3.02249994E-02  -1.90476000      -0.00000000       227.527649      0.326536983    
   0.00000000       0.00000000       0.00000000       227.527649      0.326536983    
  0.150970995      -1.89900804      -0.00000000       227.527649      0.326536983    
  0.330799997      -1.87605906      -0.00000000       220.441422      -4.01925631E-02
  0.271109998      -1.88560998      -0.00000000       220.441422      -4.01925631E-02
   0.00000000       0.00000000       0.00000000       220.441422      -4.01925631E-02
  0.390157014      -1.86461902      -0.00000000       220.441422      -4.01925631E-02
   0.00000000       0.00000000       0.00000000       219.694077      0.147314504    
  0.271109998      -1.88560998      -0.00000000       219.694077      0.147314504    
  0.211146995      -1.89326203      -0.00000000       219.694077      0.147314504    
  0.150970995      -1.89900804      -0.00000000       219.694077      0.147314504    
  0.449120998      -1.85130095      -0.00000000       230.034714     -0.220911190    
  0.390157014      -1.86461902      -0.00000000       230.034714     -0.220911190    
   0.00000000       0.00000000       0.00000000       230.034714     -0.220911190    
  0.507632971      -1.83611906      -0.00000000       230.034714     -0.220911190    
  0.679867983      -1.77955198      -0.00000000       273.959381     -0.524432659    
  0.623063982      -1.80022705      -0.00000000       273.959381     -0.524432659    
   0.00000000       0.00000000       0.00000000       273.959381     -0.524432659    
  0.735987008      -1.75708497      -0.00000000       273.959381     -0.524432659    
   0.00000000       0.00000000       0.00000000       248.040665     -0.383865565    
  0.623063982      -1.80022705      -0.00000000       248.040665     -0.383865565    
  0.565632999      -1.81908906      -0.00000000       248.040665     -0.383865565    
  0.507632971      -1.83611906      -0.00000000       248.040665     -0.383865565    
  0.791365981      -1.73284900      -0.00000000       306.809113     -0.640790343    
  0.735987008      -1.75708497      -0.00000000       306.809113     -0.640790343    
   0.00000000       0.00000000       0.00000000       306.809113     -0.640790343    
  0.845947027      -1.70686805      -0.00000000       306.809113     -0.640790343    
   1.00436401      -1.61872697      -0.00000000       390.944855     -0.812233865    
  0.952499986      -1.64977801      -0.00000000       390.944855     -0.812233865    
   0.00000000       0.00000000       0.00000000       390.944855     -0.812233865    
   1.05521798      -1.58604598      -0.00000000       390.944855     -0.812233865    
   0.00000000       0.00000000       0.00000000       346.060577     -0.735761881    
  0.952499986      -1.64977801      -0.00000000       346.060577     -0.735761881    
  0.899676025      -1.67916906      -0.00000000       346.060577     -0.735761881    
  0.845947027      -1.70686805      -0.00000000       346.060577     -0.735761881    
   1.10500801      -1.55176699      -0.00000000       440.231628     -0.873161495    
   1.05521798      -1.58604598      -0.00000000       440.231628     -0.873161495    
   0.00000000       0.00000000       0.00000000       440.231628     -0.873161495    
   1.15368605      -1.51592600      -0.00000000       440.231628     -0.873161495    
   1.29255998      -1.39939702      -0.00000000       541.182068     -0.956748724    
   1.24750996      -1.43970299      -0.00000000       541.182068     -0.956748724    
   0.00000000       0.00000000       0.00000000       541.182068     -0.956748724    
   1.33631003      -1.35768199      -0.00000000       541.182068     -0.956748724    
   0.00000000       0.00000000       0.00000000       491.534973     -0.920765519    
   1.24750996      -1.43970299      -0.00000000       491.534973     -0.920765519    
   1.20120299      -1.47855902      -0.00000000       491.534973     -0.920765519    