 VARIABLES="X" "Y" "Z" "abs(p) (Pa)" "angle(p) (rad)"
ZONE N=    802,E =     800, F=FEPOINT, ET=QUADRILATERAL
   1.90499997       0.00000000      -0.00000000       9.62852001      -1.61764145    
   1.90404105      -6.04420006E-02  -0.00000000       9.62852001      -1.61764145    
   0.00000000       0.00000000       0.00000000       9.62852001      -1.61764145    
   1.90404105       6.04420006E-02  -0.00000000       9.62852001      -1.61764145    
   1.88967395      0.241159007      -0.00000000       503.321991      -1.55825412    
   1.89637399      0.181081995      -0.00000000       503.321991      -1.55825412    
   0.00000000       0.00000000       0.00000000       503.321991      -1.55825412    
   1.88107097      0.300992996      -0.00000000       503.321991      -1.55825412    
   0.00000000       0.00000000       0.00000000       256.167786      -1.55925298    
   1.89637399      0.181081995      -0.00000000       256.167786      -1.55925298    
   1.90116501      0.120823003      -0.00000000       256.167786      -1.55925298    
   1.90404105       6.04420006E-02  -0.00000000       256.167786      -1.55925298    
   1.87057400      0.360523999      -0.00000000       755.553833      -1.55828011    
   1.88107097      0.300992996      -0.00000000       755.553833      -1.55828011    
   0.00000000       0.00000000       0.00000000       755.553833      -1.55828011    
   1.85819399      0.419692010      -0.00000000       755.553833      -1.55828011    
   1.80988598      0.594424009      -0.00000000       1282.41235      -1.55937934    
   1.82783401      0.536701024      -0.00000000       1282.41235      -1.55937934    
   0.00000000       0.00000000       0.00000000       1282.41235      -1.55937934    
   1.79011405      0.651548028      -0.00000000       1282.41235      -1.55937934    
   0.00000000       0.00000000       0.00000000       1014.50031      -1.55869639    
   1.82783401      0.536701024      -0.00000000       1014.50031      -1.55869639    
   1.84394205      0.478437006      -0.00000000       1014.50031      -1.55869639    
   1.85819399      0.419692010      -0.00000000       1014.50031      -1.55869639    
   1.76854098      0.708016992      -0.00000000       1563.95410      -1.56036592    
   1.79011405      0.651548028      -0.00000000       1563.95410      -1.56036592    
   0.00000000       0.00000000       0.00000000       1563.95410      -1.56036592    
   1.74518704      0.763773024      -0.00000000       1563.95410      -1.56036592    
   1.66468298      0.926204979      -0.00000000       2173.54639      -1.56297660    
   1.69323206      0.872922003      -0.00000000       2173.54639      -1.56297660    
   0.00000000       0.00000000       0.00000000       2173.54639      -1.56297660    
   1.63445795      0.978555024      -0.00000000       2173.54639      -1.56297660    
   0.00000000       0.00000000       0.00000000       1860.74133      -1.56157470    
   1.69323206      0.872922003      -0.00000000       1860.74133      -1.56157470    
   1.72007501      0.818759024      -0.00000000       1860.74133      -1.56157470    
   1.74518704      0.763773024      -0.00000000       1860.74133      -1.56157470    
   1.60258806       1.02992105      -0.00000000       2498.17139      -1.56444204    
   1.63445795      0.978555024      -0.00000000       2498.17139      -1.56444204    
   0.00000000       0.00000000       0.00000000       2498.17139      -1.56444204    
   1.56910396       1.08024895      -0.00000000       2498.17139      -1.56444204    
   1.45931494       1.22450995      -0.00000000       3138.37915      -1.56698930    
   1.49743104       1.17759299      -0.00000000       3138.37915      -1.56698930    
   0.00000000       0.00000000       0.00000000       3138.37915      -1.56698930    
   1.41972899       1.27019501      -0.00000000       3138.37915      -1.56698930    
   0.00000000       0.00000000       0.00000000       2826.88745      -1.56586385    
   1.49743104       1.17759299      -0.00000000       2826.88745      -1.56586385    
   1.53403997       1.12949002      -0.00000000       2826.88745      -1.56586385    
   1.56910396       1.08024895      -0.00000000       2826.88745      -1.56586385    
   1.37871301       1.31459999      -0.00000000       3363.08398      -1.56700730    
   1.41972899       1.27019501      -0.00000000       3363.08398      -1.56700730    
   0.00000000       0.00000000       0.00000000       3363.08398      -1.56700730    
   1.33631003       1.35768199      -0.00000000       3363.08398      -1.56700730    
   1.20120299       1.47855902      -0.00000000       3374.79028      -1.56180060    
   1.24750996       1.43970299      -0.00000000       3374.79028      -1.56180060    
   0.00000000       0.00000000       0.00000000       3374.79028      -1.56180060    
   1.15368605       1.51592600      -0.00000000       3374.79028      -1.56180060    
   0.00000000       0.00000000       0.00000000       3413.68848      -1.56490862    
   1.24750996       1.43970299      -0.00000000       3413.68848      -1.56490862    
   1.29255998       1.39939702      -0.00000000       3413.68848      -1.56490862    
   1.33631003       1.35768199      -0.00000000       3413.68848      -1.56490862    
   1.10500801       1.55176699      -0.00000000       3320.49731      -1.55863833    
   1.15368605       1.51592600      -0.00000000       3320.49731      -1.55863833    
   0.00000000       0.00000000       0.00000000       3320.49731      -1.55863833    
   1.05521798       1.58604598      -0.00000000       3320.49731      -1.55863833    
  0.899676025       1.67916906      -0.00000000       3237.02930      -1.55320013    
  0.952499986       1.64977801      -0.00000000       3237.02930      -1.55320013    
   0.00000000       0.00000000       0.00000000       3237.02930      -1.55320013    
  0.845947027       1.70686805      -0.00000000       3237.02930      -1.55320013    
   0.00000000       0.00000000       0.00000000       3272.37622      -1.55572903    
  0.952499986       1.64977801      -0.00000000       3272.37622      -1.55572903    
   1.00436401       1.61872697      -0.00000000       3272.37622      -1.55572903    
   1.05521798       1.58604598      -0.00000000       3272.37622      -1.55572903    
  0.791365981       1.73284900      -0.00000000       3218.31787      -1.55114520    
  0.845947027       1.70686805      -0.00000000       3218.31787      -1.55114520    
   0.00000000       0.00000000       0.00000000       3218.31787      -1.55114520    
  0.735987008       1.75708497      -0.00000000       3218.31787      -1.55114520    
  0.565632999       1.81908906      -0.00000000       3221.13818      -1.54839301    
  0.623063982       1.80022705      -0.00000000       3221.13818      -1.54839301    
   0.00000000       0.00000000       0.00000000       3221.13818      -1.54839301    
  0.507632971       1.83611906      -0.00000000       3221.13818      -1.54839301    
   0.00000000       0.00000000       0.00000000       3214.21680      -1.54955554    
  0.623063982       1.80022705      -0.00000000       3214.21680      -1.54955554    
  0.679867983       1.77955198      -0.00000000       3214.21680      -1.54955554    
  0.735987008       1.75708497      -0.00000000       3214.21680      -1.54955554    
  0.449120998       1.85130095      -0.00000000       3233.33545      -1.54756546    
  0.507632971       1.83611906      -0.00000000       3233.33545      -1.54756546    
   0.00000000       0.00000000       0.00000000       3233.33545      -1.54756546    
  0.390157014       1.86461902      -0.00000000       3233.33545      -1.54756546    
  0.211146995       1.89326203      -0.00000000       3261.09814      -1.54670680    
  0.271109998       1.88560998      -0.00000000       3261.09814      -1.54670680    
   0.00000000       0.00000000       0.00000000       3261.09814      -1.54670680    
  0.150970995       1.89900804      -0.00000000       3261.09814      -1.54670680    
   0.00000000       0.00000000       0.00000000       3248.01880      -1.54702783    
  0.271109998       1.88560998      -0.00000000       3248.01880      -1.54702783    
  0.330799997       1.87605906      -0.00000000       3248.01880      -1.54702783    
  0.390157014       1.86461902      -0.00000000       3248.01880      -1.54702783    
   9.06440020E-02   1.90284204      -0.00000000       3270.02905      -1.54655981    
  0.150970995       1.89900804      -0.00000000       3270.02905      -1.54655981    
   0.00000000       0.00000000       0.00000000       3270.02905      -1.54655981    
   3.02249994E-02   1.90476000      -0.00000000       3270.02905      -1.54655981    
 -0.150970995       1.89900804      -0.00000000       3275.11157      -1.54678082    
  -9.06440020E-02   1.90284204      -0.00000000       3275.11157      -1.54678082    
   0.00000000       0.00000000       0.00000000       3275.11157      -1.54678082    
 -0.211146995       1.89326203      -0.00000000       3275.11157      -1.54678082    
   0.00000000       0.00000000       0.00000000       3274.58765      -1.54658258    
  -9.06440020E-02   1.90284204      -0.00000000       3274.58765      -1.54658258    
  -3.02249994E-02   1.90476000      -0.00000000       3274.58765      -1.54658258    
   3.02249994E-02   1.90476000      -0.00000000       3274.58765      -1.54658258    
 -0.271109998       1.88560998      -0.00000000       3271.81055      -1.54715288    
 -0.211146995       1.89326203      -0.00000000       3271.81055      -1.54715288    
   0.00000000       0.00000000       0.00000000       3271.81055      -1.54715288    
 -0.330799997       1.87605906      -0.00000000       3271.81055      -1.54715288    
 -0.507632971       1.83611906      -0.00000000       3268.61890      -1.54866791    
 -0.449120998       1.85130095      -0.00000000       3268.61890      -1.54866791    
   0.00000000       0.00000000       0.00000000       3268.61890      -1.54866791    
 -0.565632999       1.81908906      -0.00000000       3268.61890      -1.54866791    
   0.00000000       0.00000000       0.00000000       3268.66577      -1.54776502    
 -0.449120998       1.85130095      -0.00000000       3268.66577      -1.54776502    
 -0.390157014       1.86461902      -0.00000000       3268.66577      -1.54776502    
 -0.330799997       1.87605906      -0.00000000       3268.66577      -1.54776502    
 -0.623063982       1.80022705      -0.00000000       3275.42920      -1.54991651    
 -0.565632999       1.81908906      -0.00000000       3275.42920      -1.54991651    
   0.00000000       0.00000000       0.00000000       3275.42920      -1.54991651    
 -0.679867983       1.77955198      -0.00000000       3275.42920      -1.54991651    
 -0.845947027       1.70686805      -0.00000000       3328.11987      -1.55369437    
 -0.791365981       1.73284900      -0.00000000       3328.11987      -1.55369437    
   0.00000000       0.00000000       0.00000000       3328.11987      -1.55369437    
 -0.899676025       1.67916906      -0.00000000       3328.11987      -1.55369437    
   0.00000000       0.00000000       0.00000000       3294.81812      -1.55159140    
 -0.791365981       1.73284900      -0.00000000       3294.81812      -1.55159140    
 -0.735987008       1.75708497      -0.00000000       3294.81812      -1.55159140    
 -0.679867983       1.77955198      -0.00000000       3294.81812      -1.55159140    
 -0.952499986       1.64977801      -0.00000000       3375.49023      -1.55620956    
 -0.899676025       1.67916906      -0.00000000       3375.49023      -1.55620956    
   0.00000000       0.00000000       0.00000000       3375.49023      -1.55620956    
  -1.00436401       1.61872697      -0.00000000       3375.49023      -1.55620956    
  -1.15368605       1.51592600      -0.00000000       3491.01953      -1.56206703    
  -1.10500801       1.55176699      -0.00000000       3491.01953      -1.56206703    
   0.00000000       0.00000000       0.00000000       3491.01953      -1.56206703    
  -1.20120299       1.47855902      -0.00000000       3491.01953      -1.56206703    
   0.00000000       0.00000000       0.00000000       3432.35327      -1.55904031    
  -1.10500801       1.55176699      -0.00000000       3432.35327      -1.55904031    
  -1.05521798       1.58604598      -0.00000000       3432.35327      -1.55904031    
  -1.00436401       1.61872697      -0.00000000       3432.35327      -1.55904031    
  -1.24750996       1.43970299      -0.00000000       3529.77661      -1.56500661    
  -1.20120299       1.47855902      -0.00000000       3529.77661      -1.56500661    
   0.00000000       0.00000000       0.00000000       3529.77661      -1.56500661    
  -1.29255998       1.39939702      -0.00000000       3529.77661      -1.56500661    
  -1.41972899       1.27019501      -0.00000000       3244.18652      -1.56686521    
  -1.37871301       1.31459999      -0.00000000       3244.18652      -1.56686521    
   0.00000000       0.00000000       0.00000000       3244.18652      -1.56686521    
  -1.45931494       1.22450995      -0.00000000       3244.18652      -1.56686521    
   0.00000000       0.00000000       0.00000000       3477.36890      -1.56699038    
  -1.37871301       1.31459999      -0.00000000       3477.36890      -1.56699038    
  -1.33631003       1.35768199      -0.00000000       3477.36890      -1.56699038    
  -1.29255998       1.39939702      -0.00000000       3477.36890      -1.56699038    
  -1.49743104       1.17759299      -0.00000000       2919.76025      -1.56556427    
  -1.45931494       1.22450995      -0.00000000       2919.76025      -1.56556427    
   0.00000000       0.00000000       0.00000000       2919.76025      -1.56556427    
  -1.53403997       1.12949002      -0.00000000       2919.76025      -1.56556427    
  -1.63445795      0.978555024      -0.00000000       2252.20605      -1.56233704    
  -1.60258806       1.02992105      -0.00000000       2252.20605      -1.56233704    
   0.00000000       0.00000000       0.00000000       2252.20605      -1.56233704    
  -1.66468298      0.926204979      -0.00000000       2252.20605      -1.56233704    
   0.00000000       0.00000000       0.00000000       2581.51514      -1.56396258    
  -1.60258806       1.02992105      -0.00000000       2581.51514      -1.56396258    
  -1.56910396       1.08024895      -0.00000000       2581.51514      -1.56396258    
  -1.53403997       1.12949002      -0.00000000       2581.51514      -1.56396258    
  -1.69323206      0.872922003      -0.00000000       1938.59534      -1.56079745    
  -1.66468298      0.926204979      -0.00000000       1938.59534      -1.56079745    
   0.00000000       0.00000000       0.00000000       1938.59534      -1.56079745    
  -1.72007501      0.818759024      -0.00000000       1938.59534      -1.56079745    
  -1.79011405      0.651548028      -0.00000000       1368.26245      -1.55844319    
  -1.76854098      0.708016992      -0.00000000       1368.26245      -1.55844319    
   0.00000000       0.00000000       0.00000000       1368.26245      -1.55844319    
  -1.80988598      0.594424009      -0.00000000       1368.26245      -1.55844319    
   0.00000000       0.00000000       0.00000000       1644.91931      -1.55949092    
  -1.76854098      0.708016992      -0.00000000       1644.91931      -1.55949092    
  -1.74518704      0.763773024      -0.00000000       1644.91931      -1.55949092    
  -1.72007501      0.818759024      -0.00000000       1644.91931      -1.55949092    
  -1.82783401      0.536701024      -0.00000000       1104.42737      -1.55767119    
  -1.80988598      0.594424009      -0.00000000       1104.42737      -1.55767119    
   0.00000000       0.00000000       0.00000000       1104.42737      -1.55767119    
  -1.84394205      0.478437006      -0.00000000       1104.42737      -1.55767119    
  -1.88107097      0.300992996      -0.00000000       600.578369      -1.55679750    
  -1.87057400      0.360523999      -0.00000000       600.578369      -1.55679750    
   0.00000000       0.00000000       0.00000000       600.578369      -1.55679750    
  -1.88967395      0.241159007      -0.00000000       600.578369      -1.55679750    
   0.00000000       0.00000000       0.00000000       849.290771      -1.55711389    
  -1.87057400      0.360523999      -0.00000000       849.290771      -1.55711389    
  -1.85819399      0.419692010      -0.00000000       849.290771      -1.55711389    
  -1.84394205      0.478437006      -0.00000000       849.290771      -1.55711389    
  -1.89637399      0.181081995      -0.00000000       355.492706      -1.55674100    
  -1.88967395      0.241159007      -0.00000000       355.492706      -1.55674100    
   0.00000000       0.00000000       0.00000000       355.492706      -1.55674100    
  -1.90116501      0.120823003      -0.00000000       355.492706      -1.55674100    
  -1.90404105      -6.04420006E-02  -0.00000000       134.403381       1.58528459    
  -1.90499997       0.00000000      -0.00000000       134.403381       1.58528459    
   0.00000000       0.00000000       0.00000000       134.403381       1.58528459    
  -1.90116501     -0.120823003      -0.00000000       134.403381       1.58528459    
   0.00000000       0.00000000       0.00000000       110.457573      -1.55687487    
  -1.90499997       0.00000000      -0.00000000       110.457573      -1.55687487    
  -1.90404105       6.04420006E-02  -0.00000000       110.457573      -1.55687487    
  -1.90116501      0.120823003      -0.00000000       110.457573      -1.55687487    
  -1.89637399     -0.181081995      -0.00000000       378.919495       1.58508396    
  -1.90116501     -0.120823003      -0.00000000       378.919495       1.58508396    
   0.00000000       0.00000000       0.00000000       378.919495       1.58508396    
  -1.88967395     -0.241159007      -0.00000000       378.919495       1.58508396    
  -1.85819399     -0.419692010      -0.00000000       875.559021       1.58444083    
  -1.87057400     -0.360523999      -0.00000000       875.559021       1.58444083    
   0.00000000       0.00000000       0.00000000       875.559021       1.58444083    
  -1.84394205     -0.478437006      -0.00000000       875.559021       1.58444083    
   0.00000000       0.00000000       0.00000000       624.655151       1.58488786    
  -1.87057400     -0.360523999      -0.00000000       624.655151       1.58488786    
  -1.88107097     -0.300992996      -0.00000000       624.655151       1.58488786    
  -1.88967395     -0.241159007      -0.00000000       624.655151       1.58488786    
  -1.82783401     -0.536701024      -0.00000000       1132.66870       1.58382833    
  -1.84394205     -0.478437006      -0.00000000       1132.66870       1.58382833    
   0.00000000       0.00000000       0.00000000       1132.66870       1.58382833    
  -1.80988598     -0.594424009      -0.00000000       1132.66870       1.58382833    
  -1.74518704     -0.763773024      -0.00000000       1678.15295       1.58193588    
  -1.76854098     -0.708016992      -0.00000000       1678.15295       1.58193588    
   0.00000000       0.00000000       0.00000000       1678.15295       1.58193588    
  -1.72007501     -0.818759024      -0.00000000       1678.15295       1.58193588    
   0.00000000       0.00000000       0.00000000       1398.42261       1.58302081    
  -1.76854098     -0.708016992      -0.00000000       1398.42261       1.58302081    
  -1.79011405     -0.651548028      -0.00000000       1398.42261       1.58302081    
  -1.80988598     -0.594424009      -0.00000000       1398.42261       1.58302081    
  -1.69323206     -0.872922003      -0.00000000       1974.21509       1.58061886    
  -1.72007501     -0.818759024      -0.00000000       1974.21509       1.58061886    
   0.00000000       0.00000000       0.00000000       1974.21509       1.58061886    
  -1.66468298     -0.926204979      -0.00000000       1974.21509       1.58061886    
  -1.56910396      -1.08024895      -0.00000000       2612.79028       1.57755232    
  -1.60258806      -1.02992105      -0.00000000       2612.79028       1.57755232    
   0.00000000       0.00000000       0.00000000       2612.79028       1.57755232    
  -1.53403997      -1.12949002      -0.00000000       2612.79028       1.57755232    
   0.00000000       0.00000000       0.00000000       2287.32617       1.57911491    
  -1.60258806      -1.02992105      -0.00000000       2287.32617       1.57911491    
  -1.63445795     -0.978555024      -0.00000000       2287.32617       1.57911491    
  -1.66468298     -0.926204979      -0.00000000       2287.32617       1.57911491    
  -1.49743104      -1.17759299      -0.00000000       2943.00781       1.57603359    
  -1.53403997      -1.12949002      -0.00000000       2943.00781       1.57603359    
   0.00000000       0.00000000       0.00000000       2943.00781       1.57603359    
  -1.45931494      -1.22450995      -0.00000000       2943.00781       1.57603359    
  -1.33631003      -1.35768199      -0.00000000       3477.01709       1.57474184    
  -1.37871301      -1.31459999      -0.00000000       3477.01709       1.57474184    
   0.00000000       0.00000000       0.00000000       3477.01709       1.57474184    
  -1.29255998      -1.39939702      -0.00000000       3477.01709       1.57474184    
   0.00000000       0.00000000       0.00000000       3255.39185       1.57481992    
  -1.37871301      -1.31459999      -0.00000000       3255.39185       1.57481992    
  -1.41972899      -1.27019501      -0.00000000       3255.39185       1.57481992    
  -1.45931494      -1.22450995      -0.00000000       3255.39185       1.57481992    
  -1.24750996      -1.43970299      -0.00000000       3519.29004       1.57679343    
  -1.29255998      -1.39939702      -0.00000000       3519.29004       1.57679343    
   0.00000000       0.00000000       0.00000000       3519.29004       1.57679343    
  -1.20120299      -1.47855902      -0.00000000       3519.29004       1.57679343    
  -1.05521798      -1.58604598      -0.00000000       3406.02905       1.58298445    
  -1.10500801      -1.55176699      -0.00000000       3406.02905       1.58298445    
   0.00000000       0.00000000       0.00000000       3406.02905       1.58298445    
  -1.00436401      -1.61872697      -0.00000000       3406.02905       1.58298445    
   0.00000000       0.00000000       0.00000000       3470.52783       1.57985389    
  -1.10500801      -1.55176699      -0.00000000       3470.52783       1.57985389    
  -1.15368605      -1.51592600      -0.00000000       3470.52783       1.57985389    
  -1.20120299      -1.47855902      -0.00000000       3470.52783       1.57985389    
 -0.952499986      -1.64977801      -0.00000000       3347.73682       1.58587825    
  -1.00436401      -1.61872697      -0.00000000       3347.73682       1.58587825    
   0.00000000       0.00000000       0.00000000       3347.73682       1.58587825    
 -0.899676025      -1.67916906      -0.00000000       3347.73682       1.58587825    
 -0.735987008      -1.75708497      -0.00000000       3274.43140       1.59046984    
 -0.791365981      -1.73284900      -0.00000000       3274.43140       1.59046984    
   0.00000000       0.00000000       0.00000000       3274.43140       1.59046984    
 -0.679867983      -1.77955198      -0.00000000       3274.43140       1.59046984    
   0.00000000       0.00000000       0.00000000       3302.50928       1.58840621    
 -0.791365981      -1.73284900      -0.00000000       3302.50928       1.58840621    
 -0.845947027      -1.70686805      -0.00000000       3302.50928       1.58840621    
 -0.899676025      -1.67916906      -0.00000000       3302.50928       1.58840621    
 -0.623063982      -1.80022705      -0.00000000       3261.44775       1.59207642    
 -0.679867983      -1.77955198      -0.00000000       3261.44775       1.59207642    
   0.00000000       0.00000000       0.00000000       3261.44775       1.59207642    
 -0.565632999      -1.81908906      -0.00000000       3261.44775       1.59207642    
 -0.390157014      -1.86461902      -0.00000000       3263.73584       1.59411132    
 -0.449120998      -1.85130095      -0.00000000       3263.73584       1.59411132    
   0.00000000       0.00000000       0.00000000       3263.73584       1.59411132    
 -0.330799997      -1.87605906      -0.00000000       3263.73584       1.59411132    
   0.00000000       0.00000000       0.00000000       3259.83081       1.59326029    
 -0.449120998      -1.85130095      -0.00000000       3259.83081       1.59326029    
 -0.507632971      -1.83611906      -0.00000000       3259.83081       1.59326029    
 -0.565632999      -1.81908906      -0.00000000       3259.83081       1.59326029    
 -0.271109998      -1.88560998      -0.00000000       3270.09302       1.59467888    
 -0.330799997      -1.87605906      -0.00000000       3270.09302       1.59467888    
   0.00000000       0.00000000       0.00000000       3270.09302       1.59467888    
 -0.211146995      -1.89326203      -0.00000000       3270.09302       1.59467888    
  -3.02249994E-02  -1.90476000      -0.00000000       3275.68213       1.59520662    
  -9.06440020E-02  -1.90284204      -0.00000000       3275.68213       1.59520662    
   0.00000000       0.00000000       0.00000000       3275.68213       1.59520662    
   3.02249994E-02  -1.90476000      -0.00000000       3275.68213       1.59520662    
   0.00000000       0.00000000       0.00000000       3274.96118       1.59502840    
  -9.06440020E-02  -1.90284204      -0.00000000       3274.96118       1.59502840    
 -0.150970995      -1.89900804      -0.00000000       3274.96118       1.59502840    
 -0.211146995      -1.89326203      -0.00000000       3274.96118       1.59502840    
   9.06440020E-02  -1.90284204      -0.00000000       3272.08423       1.59521592    
   3.02249994E-02  -1.90476000      -0.00000000       3272.08423       1.59521592    
   0.00000000       0.00000000       0.00000000       3272.08423       1.59521592    
  0.150970995      -1.89900804      -0.00000000       3272.08423       1.59521592    
  0.330799997      -1.87605906      -0.00000000       3252.84277       1.59471071    
  0.271109998      -1.88560998      -0.00000000       3252.84277       1.59471071    
   0.00000000       0.00000000       0.00000000       3252.84277       1.59471071    
  0.390157014      -1.86461902      -0.00000000       3252.84277       1.59471071    
   0.00000000       0.00000000       0.00000000       3264.39551       1.59505188    
  0.271109998      -1.88560998      -0.00000000       3264.39551       1.59505188    
  0.211146995      -1.89326203      -0.00000000       3264.39551       1.59505188    
  0.150970995      -1.89900804      -0.00000000       3264.39551       1.59505188    
  0.449120998      -1.85130095      -0.00000000       3241.60693       1.59412396    
  0.390157014      -1.86461902      -0.00000000       3241.60693       1.59412396    
   0.00000000       0.00000000       0.00000000       3241.60693       1.59412396    
  0.507632971      -1.83611906      -0.00000000       3241.60693       1.59412396    
  0.679867983      -1.77955198      -0.00000000       3231.72583       1.59201348    
  0.623063982      -1.80022705      -0.00000000       3231.72583       1.59201348    
   0.00000000       0.00000000       0.00000000       3231.72583       1.59201348    
  0.735987008      -1.75708497      -0.00000000       3231.72583       1.59201348    
   0.00000000       0.00000000       0.00000000       3233.33105       1.59324241    
  0.623063982      -1.80022705      -0.00000000       3233.33105       1.59324241    
  0.565632999      -1.81908906      -0.00000000       3233.33105       1.59324241    
  0.507632971      -1.83611906      -0.00000000       3233.33105       1.59324241    
  0.791365981      -1.73284900      -0.00000000       3242.31104       1.59034872    
  0.735987008      -1.75708497      -0.00000000       3242.31104       1.59034872    
   0.00000000       0.00000000       0.00000000       3242.31104       1.59034872    
  0.845947027      -1.70686805      -0.00000000       3242.31104       1.59034872    
   1.00436401      -1.61872697      -0.00000000       3304.10181       1.58572662    
  0.952499986      -1.64977801      -0.00000000       3304.10181       1.58572662    
   0.00000000       0.00000000       0.00000000       3304.10181       1.58572662    
   1.05521798      -1.58604598      -0.00000000       3304.10181       1.58572662    
   0.00000000       0.00000000       0.00000000       3266.38989       1.58824992    
  0.952499986      -1.64977801      -0.00000000       3266.38989       1.58824992    
  0.899676025      -1.67916906      -0.00000000       3266.38989       1.58824992    
  0.845947027      -1.70686805      -0.00000000       3266.38989       1.58824992    
   1.10500801      -1.55176699      -0.00000000       3351.15527       1.58287156    
   1.05521798      -1.58604598      -0.00000000       3351.15527       1.58287156    
   0.00000000       0.00000000       0.00000000       3351.15527       1.58287156    
   1.15368605      -1.51592600      -0.00000000       3351.15527       1.58287156    
   1.29255998      -1.39939702      -0.00000000       3429.50171       1.57681489    
   1.24750996      -1.43970299      -0.00000000       3429.50171       1.57681489    
   0.00000000       0.00000000       0.00000000       3429.50171       1.57681489    
   1.33631003      -1.35768199      -0.00000000       3429.50171       1.57681489    
   0.00000000       0.00000000       0.00000000       3400.07861       1.57980597    
   1.24750996      -1.43970299      -0.00000000       3400.07861       1.57980597    
   1.20120299      -1.47855902      -0.00000000       3400.07861       1.57980597    