 VARIABLES="X" "Y" "Z" "abs(p) (Pa)" "angle(p) (rad)"
ZONE N=    802,E =     800, F=FEPOINT, ET=QUADRILATERAL
   1.90499997       0.00000000      -0.00000000       1.59118927       1.48536003    
   1.90404105      -6.04420006E-02  -0.00000000       1.59118927       1.48536003    
   0.00000000       0.00000000       0.00000000       1.59118927       1.48536003    
   1.90404105       6.04420006E-02  -0.00000000       1.59118927       1.48536003    
   1.88967395      0.241159007      -0.00000000       89.5076523       1.58136427    
   1.89637399      0.181081995      -0.00000000       89.5076523       1.58136427    
   0.00000000       0.00000000       0.00000000       89.5076523       1.58136427    
   1.88107097      0.300992996      -0.00000000       89.5076523       1.58136427    
   0.00000000       0.00000000       0.00000000       45.4698181       1.57992721    
   1.89637399      0.181081995      -0.00000000       45.4698181       1.57992721    
   1.90116501      0.120823003      -0.00000000       45.4698181       1.57992721    
   1.90404105       6.04420006E-02  -0.00000000       45.4698181       1.57992721    
   1.87057400      0.360523999      -0.00000000       134.078201       1.58137226    
   1.88107097      0.300992996      -0.00000000       134.078201       1.58137226    
   0.00000000       0.00000000       0.00000000       134.078201       1.58137226    
   1.85819399      0.419692010      -0.00000000       134.078201       1.58137226    
   1.80988598      0.594424009      -0.00000000       227.515167       1.57911706    
   1.82783401      0.536701024      -0.00000000       227.515167       1.57911706    
   0.00000000       0.00000000       0.00000000       227.515167       1.57911706    
   1.79011405      0.651548028      -0.00000000       227.515167       1.57911706    
   0.00000000       0.00000000       0.00000000       179.999619       1.58053148    
   1.82783401      0.536701024      -0.00000000       179.999619       1.58053148    
   1.84394205      0.478437006      -0.00000000       179.999619       1.58053148    
   1.85819399      0.419692010      -0.00000000       179.999619       1.58053148    
   1.76854098      0.708016992      -0.00000000       277.693817       1.57695472    
   1.79011405      0.651548028      -0.00000000       277.693817       1.57695472    
   0.00000000       0.00000000       0.00000000       277.693817       1.57695472    
   1.74518704      0.763773024      -0.00000000       277.693817       1.57695472    
   1.66468298      0.926204979      -0.00000000       389.040710       1.57067668    
   1.69323206      0.872922003      -0.00000000       389.040710       1.57067668    
   0.00000000       0.00000000       0.00000000       389.040710       1.57067668    
   1.63445795      0.978555024      -0.00000000       389.040710       1.57067668    
   0.00000000       0.00000000       0.00000000       331.499939       1.57407510    
   1.69323206      0.872922003      -0.00000000       331.499939       1.57407510    
   1.72007501      0.818759024      -0.00000000       331.499939       1.57407510    
   1.74518704      0.763773024      -0.00000000       331.499939       1.57407510    
   1.60258806       1.02992105      -0.00000000       449.498962       1.56705832    
   1.63445795      0.978555024      -0.00000000       449.498962       1.56705832    
   0.00000000       0.00000000       0.00000000       449.498962       1.56705832    
   1.56910396       1.08024895      -0.00000000       449.498962       1.56705832    
   1.45931494       1.22450995      -0.00000000       569.179260       1.56074989    
   1.49743104       1.17759299      -0.00000000       569.179260       1.56074989    
   0.00000000       0.00000000       0.00000000       569.179260       1.56074989    
   1.41972899       1.27019501      -0.00000000       569.179260       1.56074989    
   0.00000000       0.00000000       0.00000000       511.050507       1.56354630    
   1.49743104       1.17759299      -0.00000000       511.050507       1.56354630    
   1.53403997       1.12949002      -0.00000000       511.050507       1.56354630    
   1.56910396       1.08024895      -0.00000000       511.050507       1.56354630    
   1.37871301       1.31459999      -0.00000000       609.784302       1.56062877    
   1.41972899       1.27019501      -0.00000000       609.784302       1.56062877    
   0.00000000       0.00000000       0.00000000       609.784302       1.56062877    
   1.33631003       1.35768199      -0.00000000       609.784302       1.56062877    
   1.20120299       1.47855902      -0.00000000       603.439331       1.57301760    
   1.24750996       1.43970299      -0.00000000       603.439331       1.57301760    
   0.00000000       0.00000000       0.00000000       603.439331       1.57301760    
   1.15368605       1.51592600      -0.00000000       603.439331       1.57301760    
   0.00000000       0.00000000       0.00000000       615.656677       1.56555307    
   1.24750996       1.43970299      -0.00000000       615.656677       1.56555307    
   1.29255998       1.39939702      -0.00000000       615.656677       1.56555307    
   1.33631003       1.35768199      -0.00000000       615.656677       1.56555307    
   1.10500801       1.55176699      -0.00000000       588.299561       1.58074629    
   1.15368605       1.51592600      -0.00000000       588.299561       1.58074629    
   0.00000000       0.00000000       0.00000000       588.299561       1.58074629    
   1.05521798       1.58604598      -0.00000000       588.299561       1.58074629    
  0.899676025       1.67916906      -0.00000000       564.477356       1.59427285    
  0.952499986       1.64977801      -0.00000000       564.477356       1.59427285    
   0.00000000       0.00000000       0.00000000       564.477356       1.59427285    
  0.845947027       1.70686805      -0.00000000       564.477356       1.59427285    
   0.00000000       0.00000000       0.00000000       574.713074       1.58797240    
  0.952499986       1.64977801      -0.00000000       574.713074       1.58797240    
   1.00436401       1.61872697      -0.00000000       574.713074       1.58797240    
   1.05521798       1.58604598      -0.00000000       574.713074       1.58797240    
  0.791365981       1.73284900      -0.00000000       558.322266       1.59938097    
  0.845947027       1.70686805      -0.00000000       558.322266       1.59938097    
   0.00000000       0.00000000       0.00000000       558.322266       1.59938097    
  0.735987008       1.75708497      -0.00000000       558.322266       1.59938097    
  0.565632999       1.81908906      -0.00000000       555.430847       1.60616553    
  0.623063982       1.80022705      -0.00000000       555.430847       1.60616553    
   0.00000000       0.00000000       0.00000000       555.430847       1.60616553    
  0.507632971       1.83611906      -0.00000000       555.430847       1.60616553    
   0.00000000       0.00000000       0.00000000       555.596680       1.60330534    
  0.623063982       1.80022705      -0.00000000       555.596680       1.60330534    
  0.679867983       1.77955198      -0.00000000       555.596680       1.60330534    
  0.735987008       1.75708497      -0.00000000       555.596680       1.60330534    
  0.449120998       1.85130095      -0.00000000       557.034424       1.60812056    
  0.507632971       1.83611906      -0.00000000       557.034424       1.60812056    
   0.00000000       0.00000000       0.00000000       557.034424       1.60812056    
  0.390157014       1.86461902      -0.00000000       557.034424       1.60812056    
  0.211146995       1.89326203      -0.00000000       561.610046       1.61008823    
  0.271109998       1.88560998      -0.00000000       561.610046       1.61008823    
   0.00000000       0.00000000       0.00000000       561.610046       1.61008823    
  0.150970995       1.89900804      -0.00000000       561.610046       1.61008823    
   0.00000000       0.00000000       0.00000000       559.444824       1.60935414    
  0.271109998       1.88560998      -0.00000000       559.444824       1.60935414    
  0.330799997       1.87605906      -0.00000000       559.444824       1.60935414    
  0.390157014       1.86461902      -0.00000000       559.444824       1.60935414    
   9.06440020E-02   1.90284204      -0.00000000       563.063416       1.61043322    
  0.150970995       1.89900804      -0.00000000       563.063416       1.61043322    
   0.00000000       0.00000000       0.00000000       563.063416       1.61043322    
   3.02249994E-02   1.90476000      -0.00000000       563.063416       1.61043322    
 -0.150970995       1.89900804      -0.00000000       564.146179       1.60991096    
  -9.06440020E-02   1.90284204      -0.00000000       564.146179       1.60991096    
   0.00000000       0.00000000       0.00000000       564.146179       1.60991096    
 -0.211146995       1.89326203      -0.00000000       564.146179       1.60991096    
   0.00000000       0.00000000       0.00000000       563.964111       1.61036336    
  -9.06440020E-02   1.90284204      -0.00000000       563.964111       1.61036336    
  -3.02249994E-02   1.90476000      -0.00000000       563.964111       1.61036336    
   3.02249994E-02   1.90476000      -0.00000000       563.964111       1.61036336    
 -0.271109998       1.88560998      -0.00000000       563.665405       1.60906148    
 -0.211146995       1.89326203      -0.00000000       563.665405       1.60906148    
   0.00000000       0.00000000       0.00000000       563.665405       1.60906148    
 -0.330799997       1.87605906      -0.00000000       563.665405       1.60906148    
 -0.507632971       1.83611906      -0.00000000       564.024414       1.60552251    
 -0.449120998       1.85130095      -0.00000000       564.024414       1.60552251    
   0.00000000       0.00000000       0.00000000       564.024414       1.60552251    
 -0.565632999       1.81908906      -0.00000000       564.024414       1.60552251    
   0.00000000       0.00000000       0.00000000       563.185669       1.60768580    
 -0.449120998       1.85130095      -0.00000000       563.185669       1.60768580    
 -0.390157014       1.86461902      -0.00000000       563.185669       1.60768580    
 -0.330799997       1.87605906      -0.00000000       563.185669       1.60768580    
 -0.623063982       1.80022705      -0.00000000       566.633179       1.60249341    
 -0.565632999       1.81908906      -0.00000000       566.633179       1.60249341    
   0.00000000       0.00000000       0.00000000       566.633179       1.60249341    
 -0.679867983       1.77955198      -0.00000000       566.633179       1.60249341    
 -0.845947027       1.70686805      -0.00000000       580.867493       1.59322464    
 -0.791365981       1.73284900      -0.00000000       580.867493       1.59322464    
   0.00000000       0.00000000       0.00000000       580.867493       1.59322464    
 -0.899676025       1.67916906      -0.00000000       580.867493       1.59322464    
   0.00000000       0.00000000       0.00000000       571.944397       1.59842598    
 -0.791365981       1.73284900      -0.00000000       571.944397       1.59842598    
 -0.735987008       1.75708497      -0.00000000       571.944397       1.59842598    
 -0.679867983       1.77955198      -0.00000000       571.944397       1.59842598    
 -0.952499986       1.64977801      -0.00000000       593.432068       1.58697593    
 -0.899676025       1.67916906      -0.00000000       593.432068       1.58697593    
   0.00000000       0.00000000       0.00000000       593.432068       1.58697593    
  -1.00436401       1.61872697      -0.00000000       593.432068       1.58697593    
  -1.15368605       1.51592600      -0.00000000       624.715759       1.57254159    
  -1.10500801       1.55176699      -0.00000000       624.715759       1.57254159    
   0.00000000       0.00000000       0.00000000       624.715759       1.57254159    
  -1.20120299       1.47855902      -0.00000000       624.715759       1.57254159    
   0.00000000       0.00000000       0.00000000       608.673035       1.57995605    
  -1.10500801       1.55176699      -0.00000000       608.673035       1.57995605    
  -1.05521798       1.58604598      -0.00000000       608.673035       1.57995605    
  -1.00436401       1.61872697      -0.00000000       608.673035       1.57995605    
  -1.24750996       1.43970299      -0.00000000       636.952209       1.56544006    
  -1.20120299       1.47855902      -0.00000000       636.952209       1.56544006    
   0.00000000       0.00000000       0.00000000       636.952209       1.56544006    
  -1.29255998       1.39939702      -0.00000000       636.952209       1.56544006    
  -1.41972899       1.27019501      -0.00000000       588.605652       1.56105137    
  -1.37871301       1.31459999      -0.00000000       588.605652       1.56105137    
   0.00000000       0.00000000       0.00000000       588.605652       1.56105137    
  -1.45931494       1.22450995      -0.00000000       588.605652       1.56105137    
   0.00000000       0.00000000       0.00000000       630.778259       1.56073833    
  -1.37871301       1.31459999      -0.00000000       630.778259       1.56073833    
  -1.33631003       1.35768199      -0.00000000       630.778259       1.56073833    
  -1.29255998       1.39939702      -0.00000000       630.778259       1.56073833    
  -1.49743104       1.17759299      -0.00000000       527.925964       1.56419551    
  -1.45931494       1.22450995      -0.00000000       527.925964       1.56419551    
   0.00000000       0.00000000       0.00000000       527.925964       1.56419551    
  -1.53403997       1.12949002      -0.00000000       527.925964       1.56419551    
  -1.63445795      0.978555024      -0.00000000       402.833527       1.57209206    
  -1.60258806       1.02992105      -0.00000000       402.833527       1.57209206    
   0.00000000       0.00000000       0.00000000       402.833527       1.57209206    
  -1.66468298      0.926204979      -0.00000000       402.833527       1.57209206    
   0.00000000       0.00000000       0.00000000       464.365204       1.56810057    
  -1.60258806       1.02992105      -0.00000000       464.365204       1.56810057    
  -1.56910396       1.08024895      -0.00000000       464.365204       1.56810057    
  -1.53403997       1.12949002      -0.00000000       464.365204       1.56810057    
  -1.69323206      0.872922003      -0.00000000       345.220825       1.57578290    
  -1.66468298      0.926204979      -0.00000000       345.220825       1.57578290    
   0.00000000       0.00000000       0.00000000       345.220825       1.57578290    
  -1.72007501      0.818759024      -0.00000000       345.220825       1.57578290    
  -1.79011405      0.651548028      -0.00000000       242.723999       1.58117473    
  -1.76854098      0.708016992      -0.00000000       242.723999       1.58117473    
   0.00000000       0.00000000       0.00000000       242.723999       1.58117473    
  -1.80988598      0.594424009      -0.00000000       242.723999       1.58117473    
   0.00000000       0.00000000       0.00000000       292.103577       1.57884467    
  -1.76854098      0.708016992      -0.00000000       292.103577       1.57884467    
  -1.74518704      0.763773024      -0.00000000       292.103577       1.57884467    
  -1.72007501      0.818759024      -0.00000000       292.103577       1.57884467    
  -1.82783401      0.536701024      -0.00000000       196.074463       1.58275306    
  -1.80988598      0.594424009      -0.00000000       196.074463       1.58275306    
   0.00000000       0.00000000       0.00000000       196.074463       1.58275306    
  -1.84394205      0.478437006      -0.00000000       196.074463       1.58275306    
  -1.88107097      0.300992996      -0.00000000       107.103386       1.58431077    
  -1.87057400      0.360523999      -0.00000000       107.103386       1.58431077    
   0.00000000       0.00000000       0.00000000       107.103386       1.58431077    
  -1.88967395      0.241159007      -0.00000000       107.103386       1.58431077    
   0.00000000       0.00000000       0.00000000       151.071411       1.58377552    
  -1.87057400      0.360523999      -0.00000000       151.071411       1.58377552    
  -1.85819399      0.419692010      -0.00000000       151.071411       1.58377552    
  -1.84394205      0.478437006      -0.00000000       151.071411       1.58377552    
  -1.89637399      0.181081995      -0.00000000       63.3352203       1.58494520    
  -1.88967395      0.241159007      -0.00000000       63.3352203       1.58494520    
   0.00000000       0.00000000       0.00000000       63.3352203       1.58494520    
  -1.90116501      0.120823003      -0.00000000       63.3352203       1.58494520    
  -1.90404105      -6.04420006E-02  -0.00000000       23.8478508      -1.55966127    
  -1.90499997       0.00000000      -0.00000000       23.8478508      -1.55966127    
   0.00000000       0.00000000       0.00000000       23.8478508      -1.55966127    
  -1.90116501     -0.120823003      -0.00000000       23.8478508      -1.55966127    
   0.00000000       0.00000000       0.00000000       19.6943111       1.58714485    
  -1.90499997       0.00000000      -0.00000000       19.6943111       1.58714485    
  -1.90404105       6.04420006E-02  -0.00000000       19.6943111       1.58714485    
  -1.90116501      0.120823003      -0.00000000       19.6943111       1.58714485    
  -1.89637399     -0.181081995      -0.00000000       67.5193329      -1.55841947    
  -1.90116501     -0.120823003      -0.00000000       67.5193329      -1.55841947    
   0.00000000       0.00000000       0.00000000       67.5193329      -1.55841947    
  -1.88967395     -0.241159007      -0.00000000       67.5193329      -1.55841947    
  -1.85819399     -0.419692010      -0.00000000       155.482895      -1.55871665    
  -1.87057400     -0.360523999      -0.00000000       155.482895      -1.55871665    
   0.00000000       0.00000000       0.00000000       155.482895      -1.55871665    
  -1.84394205     -0.478437006      -0.00000000       155.482895      -1.55871665    
   0.00000000       0.00000000       0.00000000       111.329971      -1.55839324    
  -1.87057400     -0.360523999      -0.00000000       111.329971      -1.55839324    
  -1.88107097     -0.300992996      -0.00000000       111.329971      -1.55839324    
  -1.88967395     -0.241159007      -0.00000000       111.329971      -1.55839324    
  -1.82783401     -0.536701024      -0.00000000       200.829498      -1.55966699    
  -1.84394205     -0.478437006      -0.00000000       200.829498      -1.55966699    
   0.00000000       0.00000000       0.00000000       200.829498      -1.55966699    
  -1.80988598     -0.594424009      -0.00000000       200.829498      -1.55966699    
  -1.74518704     -0.763773024      -0.00000000       297.723389      -1.56351054    
  -1.76854098     -0.708016992      -0.00000000       297.723389      -1.56351054    
   0.00000000       0.00000000       0.00000000       297.723389      -1.56351054    
  -1.72007501     -0.818759024      -0.00000000       297.723389      -1.56351054    
   0.00000000       0.00000000       0.00000000       247.841965      -1.56120229    
  -1.76854098     -0.708016992      -0.00000000       247.841965      -1.56120229    
  -1.79011405     -0.651548028      -0.00000000       247.841965      -1.56120229    
  -1.80988598     -0.594424009      -0.00000000       247.841965      -1.56120229    
  -1.69323206     -0.872922003      -0.00000000       351.427155      -1.56655657    
  -1.72007501     -0.818759024      -0.00000000       351.427155      -1.56655657    
   0.00000000       0.00000000       0.00000000       351.427155      -1.56655657    
  -1.66468298     -0.926204979      -0.00000000       351.427155      -1.56655657    
  -1.56910396      -1.08024895      -0.00000000       469.863586      -1.57394767    
  -1.60258806      -1.02992105      -0.00000000       469.863586      -1.57394767    
   0.00000000       0.00000000       0.00000000       469.863586      -1.57394767    
  -1.53403997      -1.12949002      -0.00000000       469.863586      -1.57394767    
   0.00000000       0.00000000       0.00000000       409.073151      -1.57012701    
  -1.60258806      -1.02992105      -0.00000000       409.073151      -1.57012701    
  -1.63445795     -0.978555024      -0.00000000       409.073151      -1.57012701    
  -1.66468298     -0.926204979      -0.00000000       409.073151      -1.57012701    
  -1.49743104      -1.17759299      -0.00000000       531.784180      -1.57765472    
  -1.53403997      -1.12949002      -0.00000000       531.784180      -1.57765472    
   0.00000000       0.00000000       0.00000000       531.784180      -1.57765472    
  -1.45931494      -1.22450995      -0.00000000       531.784180      -1.57765472    
  -1.33631003      -1.35768199      -0.00000000       630.467896      -1.58089006    
  -1.37871301      -1.31459999      -0.00000000       630.467896      -1.58089006    
   0.00000000       0.00000000       0.00000000       630.467896      -1.58089006    
  -1.29255998      -1.39939702      -0.00000000       630.467896      -1.58089006    
   0.00000000       0.00000000       0.00000000       590.214539      -1.58062947    
  -1.37871301      -1.31459999      -0.00000000       590.214539      -1.58062947    
  -1.41972899      -1.27019501      -0.00000000       590.214539      -1.58062947    
  -1.45931494      -1.22450995      -0.00000000       590.214539      -1.58062947    
  -1.24750996      -1.43970299      -0.00000000       634.905029      -1.57607996    
  -1.29255998      -1.39939702      -0.00000000       634.905029      -1.57607996    
   0.00000000       0.00000000       0.00000000       634.905029      -1.57607996    
  -1.20120299      -1.47855902      -0.00000000       634.905029      -1.57607996    
  -1.05521798      -1.58604598      -0.00000000       603.799255      -1.56108093    
  -1.10500801      -1.55176699      -0.00000000       603.799255      -1.56108093    
   0.00000000       0.00000000       0.00000000       603.799255      -1.56108093    
  -1.00436401      -1.61872697      -0.00000000       603.799255      -1.56108093    
   0.00000000       0.00000000       0.00000000       620.856018      -1.56872809    
  -1.10500801      -1.55176699      -0.00000000       620.856018      -1.56872809    
  -1.15368605      -1.51592600      -0.00000000       620.856018      -1.56872809    
  -1.20120299      -1.47855902      -0.00000000       620.856018      -1.56872809    
 -0.952499986      -1.64977801      -0.00000000       588.324463      -1.55390036    
  -1.00436401      -1.61872697      -0.00000000       588.324463      -1.55390036    
   0.00000000       0.00000000       0.00000000       588.324463      -1.55390036    
 -0.899676025      -1.67916906      -0.00000000       588.324463      -1.55390036    
 -0.735987008      -1.75708497      -0.00000000       568.458801      -1.54249191    
 -0.791365981      -1.73284900      -0.00000000       568.458801      -1.54249191    
   0.00000000       0.00000000       0.00000000       568.458801      -1.54249191    
 -0.679867983      -1.77955198      -0.00000000       568.458801      -1.54249191    
   0.00000000       0.00000000       0.00000000       576.296143      -1.54761612    
 -0.791365981      -1.73284900      -0.00000000       576.296143      -1.54761612    
 -0.845947027      -1.70686805      -0.00000000       576.296143      -1.54761612    
 -0.899676025      -1.67916906      -0.00000000       576.296143      -1.54761612    
 -0.623063982      -1.80022705      -0.00000000       564.129883      -1.53852808    
 -0.679867983      -1.77955198      -0.00000000       564.129883      -1.53852808    
   0.00000000       0.00000000       0.00000000       564.129883      -1.53852808    
 -0.565632999      -1.81908906      -0.00000000       564.129883      -1.53852808    
 -0.390157014      -1.86461902      -0.00000000       562.592285      -1.53360486    
 -0.449120998      -1.85130095      -0.00000000       562.592285      -1.53360486    
   0.00000000       0.00000000       0.00000000       562.592285      -1.53360486    
 -0.330799997      -1.87605906      -0.00000000       562.592285      -1.53360486    
   0.00000000       0.00000000       0.00000000       562.446045      -1.53561997    
 -0.449120998      -1.85130095      -0.00000000       562.446045      -1.53561997    
 -0.507632971      -1.83611906      -0.00000000       562.446045      -1.53561997    
 -0.565632999      -1.81908906      -0.00000000       562.446045      -1.53561997    
 -0.271109998      -1.88560998      -0.00000000       563.551575      -1.53230155    
 -0.330799997      -1.87605906      -0.00000000       563.551575      -1.53230155    
   0.00000000       0.00000000       0.00000000       563.551575      -1.53230155    
 -0.211146995      -1.89326203      -0.00000000       563.551575      -1.53230155    
  -3.02249994E-02  -1.90476000      -0.00000000       564.185852      -1.53103936    
  -9.06440020E-02  -1.90284204      -0.00000000       564.185852      -1.53103936    
   0.00000000       0.00000000       0.00000000       564.185852      -1.53103936    
   3.02249994E-02  -1.90476000      -0.00000000       564.185852      -1.53103936    
   0.00000000       0.00000000       0.00000000       564.233582      -1.53148031    
  -9.06440020E-02  -1.90284204      -0.00000000       564.233582      -1.53148031    
 -0.150970995      -1.89900804      -0.00000000       564.233582      -1.53148031    
 -0.211146995      -1.89326203      -0.00000000       564.233582      -1.53148031    
   9.06440020E-02  -1.90284204      -0.00000000       563.584778      -1.53101194    
   3.02249994E-02  -1.90476000      -0.00000000       563.584778      -1.53101194    
   0.00000000       0.00000000       0.00000000       563.584778      -1.53101194    
  0.150970995      -1.89900804      -0.00000000       563.584778      -1.53101194    
  0.330799997      -1.87605906      -0.00000000       560.329712      -1.53213584    
  0.271109998      -1.88560998      -0.00000000       560.329712      -1.53213584    
   0.00000000       0.00000000       0.00000000       560.329712      -1.53213584    
  0.390157014      -1.86461902      -0.00000000       560.329712      -1.53213584    
   0.00000000       0.00000000       0.00000000       562.274597      -1.53137207    
  0.271109998      -1.88560998      -0.00000000       562.274597      -1.53137207    
  0.211146995      -1.89326203      -0.00000000       562.274597      -1.53137207    
  0.150970995      -1.89900804      -0.00000000       562.274597      -1.53137207    
  0.449120998      -1.85130095      -0.00000000       558.426270      -1.53344476    
  0.390157014      -1.86461902      -0.00000000       558.426270      -1.53344476    
   0.00000000       0.00000000       0.00000000       558.426270      -1.53344476    
  0.507632971      -1.83611906      -0.00000000       558.426270      -1.53344476    
  0.679867983      -1.77955198      -0.00000000       558.919922      -1.53853798    
  0.623063982      -1.80022705      -0.00000000       558.919922      -1.53853798    
   0.00000000       0.00000000       0.00000000       558.919922      -1.53853798    
  0.735987008      -1.75708497      -0.00000000       558.919922      -1.53853798    
   0.00000000       0.00000000       0.00000000       557.820190      -1.53555083    
  0.623063982      -1.80022705      -0.00000000       557.820190      -1.53555083    
  0.565632999      -1.81908906      -0.00000000       557.820190      -1.53555083    
  0.507632971      -1.83611906      -0.00000000       557.820190      -1.53555083    
  0.791365981      -1.73284900      -0.00000000       562.686646      -1.54257846    
  0.735987008      -1.75708497      -0.00000000       562.686646      -1.54257846    
   0.00000000       0.00000000       0.00000000       562.686646      -1.54257846    
  0.845947027      -1.70686805      -0.00000000       562.686646      -1.54257846    
   1.00436401      -1.61872697      -0.00000000       580.807556      -1.55404663    
  0.952499986      -1.64977801      -0.00000000       580.807556      -1.55404663    
   0.00000000       0.00000000       0.00000000       580.807556      -1.55404663    
   1.05521798      -1.58604598      -0.00000000       580.807556      -1.55404663    
   0.00000000       0.00000000       0.00000000       569.973022      -1.54777324    
  0.952499986      -1.64977801      -0.00000000       569.973022      -1.54777324    
  0.899676025      -1.67916906      -0.00000000       569.973022      -1.54777324    
  0.845947027      -1.70686805      -0.00000000       569.973022      -1.54777324    
   1.10500801      -1.55176699      -0.00000000       594.258850      -1.56112325    
   1.05521798      -1.58604598      -0.00000000       594.258850      -1.56112325    
   0.00000000       0.00000000       0.00000000       594.258850      -1.56112325    
   1.15368605      -1.51592600      -0.00000000       594.258850      -1.56112325    
   1.29255998      -1.39939702      -0.00000000       619.052795      -1.57584512    
   1.24750996      -1.43970299      -0.00000000       619.052795      -1.57584512    
   0.00000000       0.00000000       0.00000000       619.052795      -1.57584512    
   1.33631003      -1.35768199      -0.00000000       619.052795      -1.57584512    
   0.00000000       0.00000000       0.00000000       608.512329      -1.56862831    
   1.24750996      -1.43970299      -0.00000000       608.512329      -1.56862831    
   1.20120299      -1.47855902      -0.00000000       608.512329      -1.56862831    