 VARIABLES="X" "Y" "Z" "abs(p) (Pa)" "angle(p) (rad)"
ZONE N=    802,E =     800, F=FEPOINT, ET=QUADRILATERAL
   1.90499997       0.00000000      -0.00000000       63.2679787       2.09389377    
   1.90404105      -6.04420006E-02  -0.00000000       63.2679787       2.09389377    
   0.00000000       0.00000000       0.00000000       63.2679787       2.09389377    
   1.90404105       6.04420006E-02  -0.00000000       63.2679787       2.09389377    
   1.88967395      0.241159007      -0.00000000       63.2043381       2.09417462    
   1.89637399      0.181081995      -0.00000000       63.2043381       2.09417462    
   0.00000000       0.00000000       0.00000000       63.2043381       2.09417462    
   1.88107097      0.300992996      -0.00000000       63.2043381       2.09417462    
   0.00000000       0.00000000       0.00000000       63.2507591       2.09396696    
   1.89637399      0.181081995      -0.00000000       63.2507591       2.09396696    
   1.90116501      0.120823003      -0.00000000       63.2507591       2.09396696    
   1.90404105       6.04420006E-02  -0.00000000       63.2507591       2.09396696    
   1.87057400      0.360523999      -0.00000000       63.1211967       2.09453726    
   1.88107097      0.300992996      -0.00000000       63.1211967       2.09453726    
   0.00000000       0.00000000       0.00000000       63.1211967       2.09453726    
   1.85819399      0.419692010      -0.00000000       63.1211967       2.09453726    
   1.80988598      0.594424009      -0.00000000       62.7716789       2.09609652    
   1.82783401      0.536701024      -0.00000000       62.7716789       2.09609652    
   0.00000000       0.00000000       0.00000000       62.7716789       2.09609652    
   1.79011405      0.651548028      -0.00000000       62.7716789       2.09609652    
   0.00000000       0.00000000       0.00000000       62.9803238       2.09516311    
   1.82783401      0.536701024      -0.00000000       62.9803238       2.09516311    
   1.84394205      0.478437006      -0.00000000       62.9803238       2.09516311    
   1.85819399      0.419692010      -0.00000000       62.9803238       2.09516311    
   1.76854098      0.708016992      -0.00000000       62.4758873       2.09741950    
   1.79011405      0.651548028      -0.00000000       62.4758873       2.09741950    
   0.00000000       0.00000000       0.00000000       62.4758873       2.09741950    
   1.74518704      0.763773024      -0.00000000       62.4758873       2.09741950    
   1.66468298      0.926204979      -0.00000000       61.5756607       2.10138154    
   1.69323206      0.872922003      -0.00000000       61.5756607       2.10138154    
   0.00000000       0.00000000       0.00000000       61.5756607       2.10138154    
   1.63445795      0.978555024      -0.00000000       61.5756607       2.10138154    
   0.00000000       0.00000000       0.00000000       62.0784187       2.09918404    
   1.69323206      0.872922003      -0.00000000       62.0784187       2.09918404    
   1.72007501      0.818759024      -0.00000000       62.0784187       2.09918404    
   1.74518704      0.763773024      -0.00000000       62.0784187       2.09918404    
   1.60258806       1.02992105      -0.00000000       60.9729767       2.10393476    
   1.63445795      0.978555024      -0.00000000       60.9729767       2.10393476    
   0.00000000       0.00000000       0.00000000       60.9729767       2.10393476    
   1.56910396       1.08024895      -0.00000000       60.9729767       2.10393476    
   1.45931494       1.22450995      -0.00000000       59.6216965       2.10931158    
   1.49743104       1.17759299      -0.00000000       59.6216965       2.10931158    
   0.00000000       0.00000000       0.00000000       59.6216965       2.10931158    
   1.41972899       1.27019501      -0.00000000       59.6216965       2.10931158    
   0.00000000       0.00000000       0.00000000       60.2962990       2.10669923    
   1.49743104       1.17759299      -0.00000000       60.2962990       2.10669923    
   1.53403997       1.12949002      -0.00000000       60.2962990       2.10669923    
   1.56910396       1.08024895      -0.00000000       60.2962990       2.10669923    
   1.37871301       1.31459999      -0.00000000       59.2673836       2.11059117    
   1.41972899       1.27019501      -0.00000000       59.2673836       2.11059117    
   0.00000000       0.00000000       0.00000000       59.2673836       2.11059117    
   1.33631003       1.35768199      -0.00000000       59.2673836       2.11059117    
   1.20120299       1.47855902      -0.00000000       60.3681717       2.10623312    
   1.24750996       1.43970299      -0.00000000       60.3681717       2.10623312    
   0.00000000       0.00000000       0.00000000       60.3681717       2.10623312    
   1.15368605       1.51592600      -0.00000000       60.3681717       2.10623312    
   0.00000000       0.00000000       0.00000000       59.6491241       2.10909009    
   1.24750996       1.43970299      -0.00000000       59.6491241       2.10909009    
   1.29255998       1.39939702      -0.00000000       59.6491241       2.10909009    
   1.33631003       1.35768199      -0.00000000       59.6491241       2.10909009    
   1.10500801       1.55176699      -0.00000000       61.0802727       2.10330200    
   1.15368605       1.51592600      -0.00000000       61.0802727       2.10330200    
   0.00000000       0.00000000       0.00000000       61.0802727       2.10330200    
   1.05521798       1.58604598      -0.00000000       61.0802727       2.10330200    
  0.899676025       1.67916906      -0.00000000       62.2175598       2.09844327    
  0.952499986       1.64977801      -0.00000000       62.2175598       2.09844327    
   0.00000000       0.00000000       0.00000000       62.2175598       2.09844327    
  0.845947027       1.70686805      -0.00000000       62.2175598       2.09844327    
   0.00000000       0.00000000       0.00000000       61.7042122       2.10065842    
  0.952499986       1.64977801      -0.00000000       61.7042122       2.10065842    
   1.00436401       1.61872697      -0.00000000       61.7042122       2.10065842    
   1.05521798       1.58604598      -0.00000000       61.7042122       2.10065842    
  0.791365981       1.73284900      -0.00000000       62.6157570       2.09670258    
  0.845947027       1.70686805      -0.00000000       62.6157570       2.09670258    
   0.00000000       0.00000000       0.00000000       62.6157570       2.09670258    
  0.735987008       1.75708497      -0.00000000       62.6157570       2.09670258    
  0.565632999       1.81908906      -0.00000000       63.1283951       2.09445739    
  0.623063982       1.80022705      -0.00000000       63.1283951       2.09445739    
   0.00000000       0.00000000       0.00000000       63.1283951       2.09445739    
  0.507632971       1.83611906      -0.00000000       63.1283951       2.09445739    
   0.00000000       0.00000000       0.00000000       62.9143105       2.09539342    
  0.623063982       1.80022705      -0.00000000       62.9143105       2.09539342    
  0.679867983       1.77955198      -0.00000000       62.9143105       2.09539342    
  0.735987008       1.75708497      -0.00000000       62.9143105       2.09539342    
  0.449120998       1.85130095      -0.00000000       63.2749023       2.09382772    
  0.507632971       1.83611906      -0.00000000       63.2749023       2.09382772    
   0.00000000       0.00000000       0.00000000       63.2749023       2.09382772    
  0.390157014       1.86461902      -0.00000000       63.2749023       2.09382772    
  0.211146995       1.89326203      -0.00000000       63.4275970       2.09318733    
  0.271109998       1.88560998      -0.00000000       63.4275970       2.09318733    
   0.00000000       0.00000000       0.00000000       63.4275970       2.09318733    
  0.150970995       1.89900804      -0.00000000       63.4275970       2.09318733    
   0.00000000       0.00000000       0.00000000       63.3693085       2.09342813    
  0.271109998       1.88560998      -0.00000000       63.3693085       2.09342813    
  0.330799997       1.87605906      -0.00000000       63.3693085       2.09342813    
  0.390157014       1.86461902      -0.00000000       63.3693085       2.09342813    
   9.06440020E-02   1.90284204      -0.00000000       63.4564209       2.09306908    
  0.150970995       1.89900804      -0.00000000       63.4564209       2.09306908    
   0.00000000       0.00000000       0.00000000       63.4564209       2.09306908    
   3.02249994E-02   1.90476000      -0.00000000       63.4564209       2.09306908    
 -0.150970995       1.89900804      -0.00000000       63.4235573       2.09321451    
  -9.06440020E-02   1.90284204      -0.00000000       63.4235573       2.09321451    
   0.00000000       0.00000000       0.00000000       63.4235573       2.09321451    
 -0.211146995       1.89326203      -0.00000000       63.4235573       2.09321451    
   0.00000000       0.00000000       0.00000000       63.4541969       2.09308314    
  -9.06440020E-02   1.90284204      -0.00000000       63.4541969       2.09308314    
  -3.02249994E-02   1.90476000      -0.00000000       63.4541969       2.09308314    
   3.02249994E-02   1.90476000      -0.00000000       63.4541969       2.09308314    
 -0.271109998       1.88560998      -0.00000000       63.3630486       2.09346747    
 -0.211146995       1.89326203      -0.00000000       63.3630486       2.09346747    
   0.00000000       0.00000000       0.00000000       63.3630486       2.09346747    
 -0.330799997       1.87605906      -0.00000000       63.3630486       2.09346747    
 -0.507632971       1.83611906      -0.00000000       63.1020470       2.09460640    
 -0.449120998       1.85130095      -0.00000000       63.1020470       2.09460640    
   0.00000000       0.00000000       0.00000000       63.1020470       2.09460640    
 -0.565632999       1.81908906      -0.00000000       63.1020470       2.09460640    
   0.00000000       0.00000000       0.00000000       63.2622108       2.09390068    
 -0.449120998       1.85130095      -0.00000000       63.2622108       2.09390068    
 -0.390157014       1.86461902      -0.00000000       63.2622108       2.09390068    
 -0.330799997       1.87605906      -0.00000000       63.2622108       2.09390068    
 -0.623063982       1.80022705      -0.00000000       62.8762932       2.09561515    
 -0.565632999       1.81908906      -0.00000000       62.8762932       2.09561515    
   0.00000000       0.00000000       0.00000000       62.8762932       2.09561515    
 -0.679867983       1.77955198      -0.00000000       62.8762932       2.09561515    
 -0.845947027       1.70686805      -0.00000000       62.1548424       2.09881759    
 -0.791365981       1.73284900      -0.00000000       62.1548424       2.09881759    
   0.00000000       0.00000000       0.00000000       62.1548424       2.09881759    
 -0.899676025       1.67916906      -0.00000000       62.1548424       2.09881759    
   0.00000000       0.00000000       0.00000000       62.5654335       2.09699941    
 -0.791365981       1.73284900      -0.00000000       62.5654335       2.09699941    
 -0.735987008       1.75708497      -0.00000000       62.5654335       2.09699941    
 -0.679867983       1.77955198      -0.00000000       62.5654335       2.09699941    
 -0.952499986       1.64977801      -0.00000000       61.6402054       2.10106540    
 -0.899676025       1.67916906      -0.00000000       61.6402054       2.10106540    
   0.00000000       0.00000000       0.00000000       61.6402054       2.10106540    
  -1.00436401       1.61872697      -0.00000000       61.6402054       2.10106540    
  -1.15368605       1.51592600      -0.00000000       60.3425064       2.10646057    
  -1.10500801       1.55176699      -0.00000000       60.3425064       2.10646057    
   0.00000000       0.00000000       0.00000000       60.3425064       2.10646057    
  -1.20120299       1.47855902      -0.00000000       60.3425064       2.10646057    
   0.00000000       0.00000000       0.00000000       61.0283356       2.10366178    
  -1.10500801       1.55176699      -0.00000000       61.0283356       2.10366178    
  -1.05521798       1.58604598      -0.00000000       61.0283356       2.10366178    
  -1.00436401       1.61872697      -0.00000000       61.0283356       2.10366178    
  -1.24750996       1.43970299      -0.00000000       59.6608276       2.10910606    
  -1.20120299       1.47855902      -0.00000000       59.6608276       2.10910606    
   0.00000000       0.00000000       0.00000000       59.6608276       2.10910606    
  -1.29255998       1.39939702      -0.00000000       59.6608276       2.10910606    
  -1.41972899       1.27019501      -0.00000000       59.6841240       2.10891533    
  -1.37871301       1.31459999      -0.00000000       59.6841240       2.10891533    
   0.00000000       0.00000000       0.00000000       59.6841240       2.10891533    
  -1.45931494       1.22450995      -0.00000000       59.6841240       2.10891533    
   0.00000000       0.00000000       0.00000000       59.3035393       2.11039805    
  -1.37871301       1.31459999      -0.00000000       59.3035393       2.11039805    
  -1.33631003       1.35768199      -0.00000000       59.3035393       2.11039805    
  -1.29255998       1.39939702      -0.00000000       59.3035393       2.11039805    
  -1.49743104       1.17759299      -0.00000000       60.3998833       2.10607815    
  -1.45931494       1.22450995      -0.00000000       60.3998833       2.10607815    
   0.00000000       0.00000000       0.00000000       60.3998833       2.10607815    
  -1.53403997       1.12949002      -0.00000000       60.3998833       2.10607815    
  -1.63445795      0.978555024      -0.00000000       61.7300911       2.10053802    
  -1.60258806       1.02992105      -0.00000000       61.7300911       2.10053802    
   0.00000000       0.00000000       0.00000000       61.7300911       2.10053802    
  -1.66468298      0.926204979      -0.00000000       61.7300911       2.10053802    
   0.00000000       0.00000000       0.00000000       61.1086540       2.10316682    
  -1.60258806       1.02992105      -0.00000000       61.1086540       2.10316682    
  -1.56910396       1.08024895      -0.00000000       61.1086540       2.10316682    
  -1.53403997       1.12949002      -0.00000000       61.1086540       2.10316682    
  -1.69323206      0.872922003      -0.00000000       62.2409630       2.09833336    
  -1.66468298      0.926204979      -0.00000000       62.2409630       2.09833336    
   0.00000000       0.00000000       0.00000000       62.2409630       2.09833336    
  -1.72007501      0.818759024      -0.00000000       62.2409630       2.09833336    
  -1.79011405      0.651548028      -0.00000000       62.9339676       2.09530854    
  -1.76854098      0.708016992      -0.00000000       62.9339676       2.09530854    
   0.00000000       0.00000000       0.00000000       62.9339676       2.09530854    
  -1.80988598      0.594424009      -0.00000000       62.9339676       2.09530854    
   0.00000000       0.00000000       0.00000000       62.6377563       2.09660840    
  -1.76854098      0.708016992      -0.00000000       62.6377563       2.09660840    
  -1.74518704      0.763773024      -0.00000000       62.6377563       2.09660840    
  -1.72007501      0.818759024      -0.00000000       62.6377563       2.09660840    
  -1.82783401      0.536701024      -0.00000000       63.1463585       2.09437847    
  -1.80988598      0.594424009      -0.00000000       63.1463585       2.09437847    
   0.00000000       0.00000000       0.00000000       63.1463585       2.09437847    
  -1.84394205      0.478437006      -0.00000000       63.1463585       2.09437847    
  -1.88107097      0.300992996      -0.00000000       63.3855476       2.09336662    
  -1.87057400      0.360523999      -0.00000000       63.3855476       2.09336662    
   0.00000000       0.00000000       0.00000000       63.3855476       2.09336662    
  -1.88967395      0.241159007      -0.00000000       63.3855476       2.09336662    
   0.00000000       0.00000000       0.00000000       63.2919998       2.09376097    
  -1.87057400      0.360523999      -0.00000000       63.2919998       2.09376097    
  -1.85819399      0.419692010      -0.00000000       63.2919998       2.09376097    
  -1.84394205      0.478437006      -0.00000000       63.2919998       2.09376097    
  -1.89637399      0.181081995      -0.00000000       63.4433212       2.09312701    
  -1.88967395      0.241159007      -0.00000000       63.4433212       2.09312701    
   0.00000000       0.00000000       0.00000000       63.4433212       2.09312701    
  -1.90116501      0.120823003      -0.00000000       63.4433212       2.09312701    
  -1.90404105      -6.04420006E-02  -0.00000000       63.4690361       2.09302330    
  -1.90499997       0.00000000      -0.00000000       63.4690361       2.09302330    
   0.00000000       0.00000000       0.00000000       63.4690361       2.09302330    
  -1.90116501     -0.120823003      -0.00000000       63.4690361       2.09302330    
   0.00000000       0.00000000       0.00000000       63.4717522       2.09300923    
  -1.90499997       0.00000000      -0.00000000       63.4717522       2.09300923    
  -1.90404105       6.04420006E-02  -0.00000000       63.4717522       2.09300923    
  -1.90116501      0.120823003      -0.00000000       63.4717522       2.09300923    
  -1.89637399     -0.181081995      -0.00000000       63.4379845       2.09315300    
  -1.90116501     -0.120823003      -0.00000000       63.4379845       2.09315300    
   0.00000000       0.00000000       0.00000000       63.4379845       2.09315300    
  -1.88967395     -0.241159007      -0.00000000       63.4379845       2.09315300    
  -1.85819399     -0.419692010      -0.00000000       63.2747498       2.09385395    
  -1.87057400     -0.360523999      -0.00000000       63.2747498       2.09385395    
   0.00000000       0.00000000       0.00000000       63.2747498       2.09385395    
  -1.84394205     -0.478437006      -0.00000000       63.2747498       2.09385395    
   0.00000000       0.00000000       0.00000000       63.3765831       2.09341741    
  -1.87057400     -0.360523999      -0.00000000       63.3765831       2.09341741    
  -1.88107097     -0.300992996      -0.00000000       63.3765831       2.09341741    
  -1.88967395     -0.241159007      -0.00000000       63.3765831       2.09341741    
  -1.82783401     -0.536701024      -0.00000000       63.1133385       2.09456539    
  -1.84394205     -0.478437006      -0.00000000       63.1133385       2.09456539    
   0.00000000       0.00000000       0.00000000       63.1133385       2.09456539    
  -1.80988598     -0.594424009      -0.00000000       63.1133385       2.09456539    
  -1.74518704     -0.763773024      -0.00000000       62.5734673       2.09697008    
  -1.76854098     -0.708016992      -0.00000000       62.5734673       2.09697008    
   0.00000000       0.00000000       0.00000000       62.5734673       2.09697008    
  -1.72007501     -0.818759024      -0.00000000       62.5734673       2.09697008    
   0.00000000       0.00000000       0.00000000       62.8859978       2.09557891    
  -1.76854098     -0.708016992      -0.00000000       62.8859978       2.09557891    
  -1.79011405     -0.651548028      -0.00000000       62.8859978       2.09557891    
  -1.80988598     -0.594424009      -0.00000000       62.8859978       2.09557891    
  -1.69323206     -0.872922003      -0.00000000       62.1611404       2.09879446    
  -1.72007501     -0.818759024      -0.00000000       62.1611404       2.09879446    
   0.00000000       0.00000000       0.00000000       62.1611404       2.09879446    
  -1.66468298     -0.926204979      -0.00000000       62.1611404       2.09879446    
  -1.56910396      -1.08024895      -0.00000000       61.0306778       2.10365033    
  -1.60258806      -1.02992105      -0.00000000       61.0306778       2.10365033    
   0.00000000       0.00000000       0.00000000       61.0306778       2.10365033    
  -1.53403997      -1.12949002      -0.00000000       61.0306778       2.10365033    
   0.00000000       0.00000000       0.00000000       61.6445961       2.10104632    
  -1.60258806      -1.02992105      -0.00000000       61.6445961       2.10104632    
  -1.63445795     -0.978555024      -0.00000000       61.6445961       2.10104632    
  -1.66468298     -0.926204979      -0.00000000       61.6445961       2.10104632    
  -1.49743104      -1.17759299      -0.00000000       60.3425446       2.10646105    
  -1.53403997      -1.12949002      -0.00000000       60.3425446       2.10646105    
   0.00000000       0.00000000       0.00000000       60.3425446       2.10646105    
  -1.45931494      -1.22450995      -0.00000000       60.3425446       2.10646105    
  -1.33631003      -1.35768199      -0.00000000       59.3016777       2.11040950    
  -1.37871301      -1.31459999      -0.00000000       59.3016777       2.11040950    
   0.00000000       0.00000000       0.00000000       59.3016777       2.11040950    
  -1.29255998      -1.39939702      -0.00000000       59.3016777       2.11040950    
   0.00000000       0.00000000       0.00000000       59.6588211       2.10911322    
  -1.37871301      -1.31459999      -0.00000000       59.6588211       2.10911322    
  -1.41972899      -1.27019501      -0.00000000       59.6588211       2.10911322    
  -1.45931494      -1.22450995      -0.00000000       59.6588211       2.10911322    
  -1.24750996      -1.43970299      -0.00000000       59.6827011       2.10892653    
  -1.29255998      -1.39939702      -0.00000000       59.6827011       2.10892653    
   0.00000000       0.00000000       0.00000000       59.6827011       2.10892653    
  -1.20120299      -1.47855902      -0.00000000       59.6827011       2.10892653    
  -1.05521798      -1.58604598      -0.00000000       61.1027527       2.10319161    
  -1.10500801      -1.55176699      -0.00000000       61.1027527       2.10319161    
   0.00000000       0.00000000       0.00000000       61.1027527       2.10319161    
  -1.00436401      -1.61872697      -0.00000000       61.1027527       2.10319161    
   0.00000000       0.00000000       0.00000000       60.3964767       2.10609746    
  -1.10500801      -1.55176699      -0.00000000       60.3964767       2.10609746    
  -1.15368605      -1.51592600      -0.00000000       60.3964767       2.10609746    
  -1.20120299      -1.47855902      -0.00000000       60.3964767       2.10609746    
 -0.952499986      -1.64977801      -0.00000000       61.7222710       2.10056925    
  -1.00436401      -1.61872697      -0.00000000       61.7222710       2.10056925    
   0.00000000       0.00000000       0.00000000       61.7222710       2.10056925    
 -0.899676025      -1.67916906      -0.00000000       61.7222710       2.10056925    
 -0.735987008      -1.75708497      -0.00000000       62.6266327       2.09664941    
 -0.791365981      -1.73284900      -0.00000000       62.6266327       2.09664941    
   0.00000000       0.00000000       0.00000000       62.6266327       2.09664941    
 -0.679867983      -1.77955198      -0.00000000       62.6266327       2.09664941    
   0.00000000       0.00000000       0.00000000       62.2314529       2.09837246    
 -0.791365981      -1.73284900      -0.00000000       62.2314529       2.09837246    
 -0.845947027      -1.70686805      -0.00000000       62.2314529       2.09837246    
 -0.899676025      -1.67916906      -0.00000000       62.2314529       2.09837246    
 -0.623063982      -1.80022705      -0.00000000       62.9211922       2.09535599    
 -0.679867983      -1.77955198      -0.00000000       62.9211922       2.09535599    
   0.00000000       0.00000000       0.00000000       62.9211922       2.09535599    
 -0.565632999      -1.81908906      -0.00000000       62.9211922       2.09535599    
 -0.390157014      -1.86461902      -0.00000000       63.2767029       2.09381270    
 -0.449120998      -1.85130095      -0.00000000       63.2767029       2.09381270    
   0.00000000       0.00000000       0.00000000       63.2767029       2.09381270    
 -0.330799997      -1.87605906      -0.00000000       63.2767029       2.09381270    
   0.00000000       0.00000000       0.00000000       63.1322441       2.09443069    
 -0.449120998      -1.85130095      -0.00000000       63.1322441       2.09443069    
 -0.507632971      -1.83611906      -0.00000000       63.1322441       2.09443069    
 -0.565632999      -1.81908906      -0.00000000       63.1322441       2.09443069    
 -0.271109998      -1.88560998      -0.00000000       63.3694954       2.09342718    
 -0.330799997      -1.87605906      -0.00000000       63.3694954       2.09342718    
   0.00000000       0.00000000       0.00000000       63.3694954       2.09342718    
 -0.211146995      -1.89326203      -0.00000000       63.3694954       2.09342718    
  -3.02249994E-02  -1.90476000      -0.00000000       63.4544563       2.09307480    
  -9.06440020E-02  -1.90284204      -0.00000000       63.4544563       2.09307480    
   0.00000000       0.00000000       0.00000000       63.4544563       2.09307480    
   3.02249994E-02  -1.90476000      -0.00000000       63.4544563       2.09307480    
   0.00000000       0.00000000       0.00000000       63.4264488       2.09319425    
  -9.06440020E-02  -1.90284204      -0.00000000       63.4264488       2.09319425    
 -0.150970995      -1.89900804      -0.00000000       63.4264488       2.09319425    
 -0.211146995      -1.89326203      -0.00000000       63.4264488       2.09319425    
   9.06440020E-02  -1.90284204      -0.00000000       63.4517479       2.09309006    
   3.02249994E-02  -1.90476000      -0.00000000       63.4517479       2.09309006    
   0.00000000       0.00000000       0.00000000       63.4517479       2.09309006    
  0.150970995      -1.89900804      -0.00000000       63.4517479       2.09309006    
  0.330799997      -1.87605906      -0.00000000       63.3579445       2.09348989    
  0.271109998      -1.88560998      -0.00000000       63.3579445       2.09348989    
   0.00000000       0.00000000       0.00000000       63.3579445       2.09348989    
  0.390157014      -1.86461902      -0.00000000       63.3579445       2.09348989    
   0.00000000       0.00000000       0.00000000       63.4200020       2.09322405    
  0.271109998      -1.88560998      -0.00000000       63.4200020       2.09322405    
  0.211146995      -1.89326203      -0.00000000       63.4200020       2.09322405    
  0.150970995      -1.89900804      -0.00000000       63.4200020       2.09322405    
  0.449120998      -1.85130095      -0.00000000       63.2549400       2.09393191    
  0.390157014      -1.86461902      -0.00000000       63.2549400       2.09393191    
   0.00000000       0.00000000       0.00000000       63.2549400       2.09393191    
  0.507632971      -1.83611906      -0.00000000       63.2549400       2.09393191    
  0.679867983      -1.77955198      -0.00000000       62.8622360       2.09568167    
  0.623063982      -1.80022705      -0.00000000       62.8622360       2.09568167    
   0.00000000       0.00000000       0.00000000       62.8622360       2.09568167    
  0.735987008      -1.75708497      -0.00000000       62.8622360       2.09568167    
   0.00000000       0.00000000       0.00000000       63.0919685       2.09465361    
  0.623063982      -1.80022705      -0.00000000       63.0919685       2.09465361    
  0.565632999      -1.81908906      -0.00000000       63.0919685       2.09465361    
  0.507632971      -1.83611906      -0.00000000       63.0919685       2.09465361    
  0.791365981      -1.73284900      -0.00000000       62.5479889       2.09708285    
  0.735987008      -1.75708497      -0.00000000       62.5479889       2.09708285    
   0.00000000       0.00000000       0.00000000       62.5479889       2.09708285    
  0.845947027      -1.70686805      -0.00000000       62.5479889       2.09708285    
   1.00436401      -1.61872697      -0.00000000       61.6140938       2.10118532    
  0.952499986      -1.64977801      -0.00000000       61.6140938       2.10118532    
   0.00000000       0.00000000       0.00000000       61.6140938       2.10118532    
   1.05521798      -1.58604598      -0.00000000       61.6140938       2.10118532    
   0.00000000       0.00000000       0.00000000       62.1333466       2.09892201    
  0.952499986      -1.64977801      -0.00000000       62.1333466       2.09892201    
  0.899676025      -1.67916906      -0.00000000       62.1333466       2.09892201    
  0.845947027      -1.70686805      -0.00000000       62.1333466       2.09892201    
   1.10500801      -1.55176699      -0.00000000       60.9972343       2.10381174    
   1.05521798      -1.58604598      -0.00000000       60.9972343       2.10381174    
   0.00000000       0.00000000       0.00000000       60.9972343       2.10381174    
   1.15368605      -1.51592600      -0.00000000       60.9972343       2.10381174    
   1.29255998      -1.39939702      -0.00000000       59.6176949       2.10932112    
   1.24750996      -1.43970299      -0.00000000       59.6176949       2.10932112    
   0.00000000       0.00000000       0.00000000       59.6176949       2.10932112    
   1.33631003      -1.35768199      -0.00000000       59.6176949       2.10932112    
   0.00000000       0.00000000       0.00000000       60.3050804       2.10664487    
   1.24750996      -1.43970299      -0.00000000       60.3050804       2.10664487    
   1.20120299      -1.47855902      -0.00000000       60.3050804       2.10664487    