 VARIABLES="X" "Y" "Z" "abs(p) (Pa)" "angle(p) (rad)"
ZONE N=    802,E =     800, F=FEPOINT, ET=QUADRILATERAL
   1.90499997       0.00000000      -0.00000000       447.350861       1.59003413    
   1.90404105      -6.04420006E-02  -0.00000000       447.350861       1.59003413    
   0.00000000       0.00000000       0.00000000       447.350861       1.59003413    
   1.90404105       6.04420006E-02  -0.00000000       447.350861       1.59003413    
   1.88967395      0.241159007      -0.00000000       446.428497       1.58980322    
   1.89637399      0.181081995      -0.00000000       446.428497       1.58980322    
   0.00000000       0.00000000       0.00000000       446.428497       1.58980322    
   1.88107097      0.300992996      -0.00000000       446.428497       1.58980322    
   0.00000000       0.00000000       0.00000000       447.128845       1.58997560    
   1.89637399      0.181081995      -0.00000000       447.128845       1.58997560    
   1.90116501      0.120823003      -0.00000000       447.128845       1.58997560    
   1.90404105       6.04420006E-02  -0.00000000       447.128845       1.58997560    
   1.87057400      0.360523999      -0.00000000       445.662689       1.58948207    
   1.88107097      0.300992996      -0.00000000       445.662689       1.58948207    
   0.00000000       0.00000000       0.00000000       445.662689       1.58948207    
   1.85819399      0.419692010      -0.00000000       445.662689       1.58948207    
   1.80988598      0.594424009      -0.00000000       445.399872       1.58826077    
   1.82783401      0.536701024      -0.00000000       445.399872       1.58826077    
   0.00000000       0.00000000       0.00000000       445.399872       1.58826077    
   1.79011405      0.651548028      -0.00000000       445.399872       1.58826077    
   0.00000000       0.00000000       0.00000000       445.159302       1.58898151    
   1.82783401      0.536701024      -0.00000000       445.159302       1.58898151    
   1.84394205      0.478437006      -0.00000000       445.159302       1.58898151    
   1.85819399      0.419692010      -0.00000000       445.159302       1.58898151    
   1.76854098      0.708016992      -0.00000000       447.134277       1.58726084    
   1.79011405      0.651548028      -0.00000000       447.134277       1.58726084    
   0.00000000       0.00000000       0.00000000       447.134277       1.58726084    
   1.74518704      0.763773024      -0.00000000       447.134277       1.58726084    
   1.66468298      0.926204979      -0.00000000       455.774231       1.58441293    
   1.69323206      0.872922003      -0.00000000       455.774231       1.58441293    
   0.00000000       0.00000000       0.00000000       455.774231       1.58441293    
   1.63445795      0.978555024      -0.00000000       455.774231       1.58441293    
   0.00000000       0.00000000       0.00000000       450.613281       1.58597434    
   1.69323206      0.872922003      -0.00000000       450.613281       1.58597434    
   1.72007501      0.818759024      -0.00000000       450.613281       1.58597434    
   1.74518704      0.763773024      -0.00000000       450.613281       1.58597434    
   1.60258806       1.02992105      -0.00000000       462.026306       1.58263934    
   1.63445795      0.978555024      -0.00000000       462.026306       1.58263934    
   0.00000000       0.00000000       0.00000000       462.026306       1.58263934    
   1.56910396       1.08024895      -0.00000000       462.026306       1.58263934    
   1.45931494       1.22450995      -0.00000000       472.328918       1.57887661    
   1.49743104       1.17759299      -0.00000000       472.328918       1.57887661    
   0.00000000       0.00000000       0.00000000       472.328918       1.57887661    
   1.41972899       1.27019501      -0.00000000       472.328918       1.57887661    
   0.00000000       0.00000000       0.00000000       468.428650       1.58073080    
   1.49743104       1.17759299      -0.00000000       468.428650       1.58073080    
   1.53403997       1.12949002      -0.00000000       468.428650       1.58073080    
   1.56910396       1.08024895      -0.00000000       468.428650       1.58073080    
   1.37871301       1.31459999      -0.00000000       464.768219       1.57768774    
   1.41972899       1.27019501      -0.00000000       464.768219       1.57768774    
   0.00000000       0.00000000       0.00000000       464.768219       1.57768774    
   1.33631003       1.35768199      -0.00000000       464.768219       1.57768774    
   1.20120299       1.47855902      -0.00000000       392.300842       1.57921112    
   1.24750996       1.43970299      -0.00000000       392.300842       1.57921112    
   0.00000000       0.00000000       0.00000000       392.300842       1.57921112    
   1.15368605       1.51592600      -0.00000000       392.300842       1.57921112    
   0.00000000       0.00000000       0.00000000       434.318237       1.57800722    
   1.24750996       1.43970299      -0.00000000       434.318237       1.57800722    
   1.29255998       1.39939702      -0.00000000       434.318237       1.57800722    
   1.33631003       1.35768199      -0.00000000       434.318237       1.57800722    
   1.10500801       1.55176699      -0.00000000       348.506958       1.58070695    
   1.15368605       1.51592600      -0.00000000       348.506958       1.58070695    
   0.00000000       0.00000000       0.00000000       348.506958       1.58070695    
   1.05521798       1.58604598      -0.00000000       348.506958       1.58070695    
  0.899676025       1.67916906      -0.00000000       264.888977       1.58405554    
  0.952499986       1.64977801      -0.00000000       264.888977       1.58405554    
   0.00000000       0.00000000       0.00000000       264.888977       1.58405554    
  0.845947027       1.70686805      -0.00000000       264.888977       1.58405554    
   0.00000000       0.00000000       0.00000000       305.760406       1.58233345    
  0.952499986       1.64977801      -0.00000000       305.760406       1.58233345    
   1.00436401       1.61872697      -0.00000000       305.760406       1.58233345    
   1.05521798       1.58604598      -0.00000000       305.760406       1.58233345    
  0.791365981       1.73284900      -0.00000000       226.453278       1.58582830    
  0.845947027       1.70686805      -0.00000000       226.453278       1.58582830    
   0.00000000       0.00000000       0.00000000       226.453278       1.58582830    
  0.735987008       1.75708497      -0.00000000       226.453278       1.58582830    
  0.565632999       1.81908906      -0.00000000       155.322601       1.58997107    
  0.623063982       1.80022705      -0.00000000       155.322601       1.58997107    
   0.00000000       0.00000000       0.00000000       155.322601       1.58997107    
  0.507632971       1.83611906      -0.00000000       155.322601       1.58997107    
   0.00000000       0.00000000       0.00000000       190.102264       1.58773947    
  0.623063982       1.80022705      -0.00000000       190.102264       1.58773947    
  0.679867983       1.77955198      -0.00000000       190.102264       1.58773947    
  0.735987008       1.75708497      -0.00000000       190.102264       1.58773947    
  0.449120998       1.85130095      -0.00000000       121.658325       1.59293652    
  0.507632971       1.83611906      -0.00000000       121.658325       1.59293652    
   0.00000000       0.00000000       0.00000000       121.658325       1.59293652    
  0.390157014       1.86461902      -0.00000000       121.658325       1.59293652    
  0.211146995       1.89326203      -0.00000000       56.4995842       1.60700011    
  0.271109998       1.88560998      -0.00000000       56.4995842       1.60700011    
   0.00000000       0.00000000       0.00000000       56.4995842       1.60700011    
  0.150970995       1.89900804      -0.00000000       56.4995842       1.60700011    
   0.00000000       0.00000000       0.00000000       88.8242493       1.59757948    
  0.271109998       1.88560998      -0.00000000       88.8242493       1.59757948    
  0.330799997       1.87605906      -0.00000000       88.8242493       1.59757948    
  0.390157014       1.86461902      -0.00000000       88.8242493       1.59757948    
   9.06440020E-02   1.90284204      -0.00000000       24.2647171       1.64105499    
  0.150970995       1.89900804      -0.00000000       24.2647171       1.64105499    
   0.00000000       0.00000000       0.00000000       24.2647171       1.64105499    
   3.02249994E-02   1.90476000      -0.00000000       24.2647171       1.64105499    
 -0.150970995       1.89900804      -0.00000000       40.1284943      -1.59604275    
  -9.06440020E-02   1.90284204      -0.00000000       40.1284943      -1.59604275    
   0.00000000       0.00000000       0.00000000       40.1284943      -1.59604275    
 -0.211146995       1.89326203      -0.00000000       40.1284943      -1.59604275    
   0.00000000       0.00000000       0.00000000       8.08577347      -1.73955488    
  -9.06440020E-02   1.90284204      -0.00000000       8.08577347      -1.73955488    
  -3.02249994E-02   1.90476000      -0.00000000       8.08577347      -1.73955488    
   3.02249994E-02   1.90476000      -0.00000000       8.08577347      -1.73955488    
 -0.271109998       1.88560998      -0.00000000       72.4218445      -1.58011436    
 -0.211146995       1.89326203      -0.00000000       72.4218445      -1.58011436    
   0.00000000       0.00000000       0.00000000       72.4218445      -1.58011436    
 -0.330799997       1.87605906      -0.00000000       72.4218445      -1.58011436    
 -0.507632971       1.83611906      -0.00000000       139.136017      -1.57124412    
 -0.449120998       1.85130095      -0.00000000       139.136017      -1.57124412    
   0.00000000       0.00000000       0.00000000       139.136017      -1.57124412    
 -0.565632999       1.81908906      -0.00000000       139.136017      -1.57124412    
   0.00000000       0.00000000       0.00000000       105.375114      -1.57416761    
 -0.449120998       1.85130095      -0.00000000       105.375114      -1.57416761    
 -0.390157014       1.86461902      -0.00000000       105.375114      -1.57416761    
 -0.330799997       1.87605906      -0.00000000       105.375114      -1.57416761    
 -0.623063982       1.80022705      -0.00000000       173.957413      -1.56969035    
 -0.565632999       1.81908906      -0.00000000       173.957413      -1.56969035    
   0.00000000       0.00000000       0.00000000       173.957413      -1.56969035    
 -0.679867983       1.77955198      -0.00000000       173.957413      -1.56969035    
 -0.845947027       1.70686805      -0.00000000       248.932037      -1.56871688    
 -0.791365981       1.73284900      -0.00000000       248.932037      -1.56871688    
   0.00000000       0.00000000       0.00000000       248.932037      -1.56871688    
 -0.899676025       1.67916906      -0.00000000       248.932037      -1.56871688    
   0.00000000       0.00000000       0.00000000       210.460159      -1.56894314    
 -0.791365981       1.73284900      -0.00000000       210.460159      -1.56894314    
 -0.735987008       1.75708497      -0.00000000       210.460159      -1.56894314    
 -0.679867983       1.77955198      -0.00000000       210.460159      -1.56894314    
 -0.952499986       1.64977801      -0.00000000       289.376343      -1.56884754    
 -0.899676025       1.67916906      -0.00000000       289.376343      -1.56884754    
   0.00000000       0.00000000       0.00000000       289.376343      -1.56884754    
  -1.00436401       1.61872697      -0.00000000       289.376343      -1.56884754    
  -1.15368605       1.51592600      -0.00000000       373.552155      -1.56963205    
  -1.10500801       1.55176699      -0.00000000       373.552155      -1.56963205    
   0.00000000       0.00000000       0.00000000       373.552155      -1.56963205    
  -1.20120299       1.47855902      -0.00000000       373.552155      -1.56963205    
   0.00000000       0.00000000       0.00000000       331.228485      -1.56918764    
  -1.10500801       1.55176699      -0.00000000       331.228485      -1.56918764    
  -1.05521798       1.58604598      -0.00000000       331.228485      -1.56918764    
  -1.00436401       1.61872697      -0.00000000       331.228485      -1.56918764    
  -1.24750996       1.43970299      -0.00000000       413.691956      -1.57000434    
  -1.20120299       1.47855902      -0.00000000       413.691956      -1.57000434    
   0.00000000       0.00000000       0.00000000       413.691956      -1.57000434    
  -1.29255998       1.39939702      -0.00000000       413.691956      -1.57000434    
  -1.41972899       1.27019501      -0.00000000       449.783295      -1.56842351    
  -1.37871301       1.31459999      -0.00000000       449.783295      -1.56842351    
   0.00000000       0.00000000       0.00000000       449.783295      -1.56842351    
  -1.45931494       1.22450995      -0.00000000       449.783295      -1.56842351    
   0.00000000       0.00000000       0.00000000       442.776337      -1.56980336    
  -1.37871301       1.31459999      -0.00000000       442.776337      -1.56980336    
  -1.33631003       1.35768199      -0.00000000       442.776337      -1.56980336    
  -1.29255998       1.39939702      -0.00000000       442.776337      -1.56980336    
  -1.49743104       1.17759299      -0.00000000       445.590668      -1.56649494    
  -1.45931494       1.22450995      -0.00000000       445.590668      -1.56649494    
   0.00000000       0.00000000       0.00000000       445.590668      -1.56649494    
  -1.53403997       1.12949002      -0.00000000       445.590668      -1.56649494    
  -1.63445795      0.978555024      -0.00000000       433.864288      -1.56277204    
  -1.60258806       1.02992105      -0.00000000       433.864288      -1.56277204    
   0.00000000       0.00000000       0.00000000       433.864288      -1.56277204    
  -1.66468298      0.926204979      -0.00000000       433.864288      -1.56277204    
   0.00000000       0.00000000       0.00000000       439.410706      -1.56455410    
  -1.60258806       1.02992105      -0.00000000       439.410706      -1.56455410    
  -1.56910396       1.08024895      -0.00000000       439.410706      -1.56455410    
  -1.53403997       1.12949002      -0.00000000       439.410706      -1.56455410    
  -1.69323206      0.872922003      -0.00000000       429.760620      -1.56121707    
  -1.66468298      0.926204979      -0.00000000       429.760620      -1.56121707    
   0.00000000       0.00000000       0.00000000       429.760620      -1.56121707    
  -1.72007501      0.818759024      -0.00000000       429.760620      -1.56121707    
  -1.79011405      0.651548028      -0.00000000       427.123260      -1.55894399    
  -1.76854098      0.708016992      -0.00000000       427.123260      -1.55894399    
   0.00000000       0.00000000       0.00000000       427.123260      -1.55894399    
  -1.80988598      0.594424009      -0.00000000       427.123260      -1.55894399    
   0.00000000       0.00000000       0.00000000       427.609406      -1.55994427    
  -1.76854098      0.708016992      -0.00000000       427.609406      -1.55994427    
  -1.74518704      0.763773024      -0.00000000       427.609406      -1.55994427    
  -1.72007501      0.818759024      -0.00000000       427.609406      -1.55994427    
  -1.82783401      0.536701024      -0.00000000       427.896423      -1.55819869    
  -1.80988598      0.594424009      -0.00000000       427.896423      -1.55819869    
   0.00000000       0.00000000       0.00000000       427.896423      -1.55819869    
  -1.84394205      0.478437006      -0.00000000       427.896423      -1.55819869    
  -1.88107097      0.300992996      -0.00000000       430.768585      -1.55729485    
  -1.87057400      0.360523999      -0.00000000       430.768585      -1.55729485    
   0.00000000       0.00000000       0.00000000       430.768585      -1.55729485    
  -1.88967395      0.241159007      -0.00000000       430.768585      -1.55729485    
   0.00000000       0.00000000       0.00000000       429.234253      -1.55765831    
  -1.87057400      0.360523999      -0.00000000       429.234253      -1.55765831    
  -1.85819399      0.419692010      -0.00000000       429.234253      -1.55765831    
  -1.84394205      0.478437006      -0.00000000       429.234253      -1.55765831    
  -1.89637399      0.181081995      -0.00000000       432.019562      -1.55707181    
  -1.88967395      0.241159007      -0.00000000       432.019562      -1.55707181    
   0.00000000       0.00000000       0.00000000       432.019562      -1.55707181    
  -1.90116501      0.120823003      -0.00000000       432.019562      -1.55707181    
  -1.90404105      -6.04420006E-02  -0.00000000       432.753632      -1.55696762    
  -1.90499997       0.00000000      -0.00000000       432.753632      -1.55696762    
   0.00000000       0.00000000       0.00000000       432.753632      -1.55696762    
  -1.90116501     -0.120823003      -0.00000000       432.753632      -1.55696762    
   0.00000000       0.00000000       0.00000000       432.675537      -1.55696154    
  -1.90499997       0.00000000      -0.00000000       432.675537      -1.55696154    
  -1.90404105       6.04420006E-02  -0.00000000       432.675537      -1.55696154    
  -1.90116501      0.120823003      -0.00000000       432.675537      -1.55696154    
  -1.89637399     -0.181081995      -0.00000000       432.258392      -1.55708945    
  -1.90116501     -0.120823003      -0.00000000       432.258392      -1.55708945    
   0.00000000       0.00000000       0.00000000       432.258392      -1.55708945    
  -1.88967395     -0.241159007      -0.00000000       432.258392      -1.55708945    
  -1.85819399     -0.419692010      -0.00000000       430.094635      -1.55771720    
  -1.87057400     -0.360523999      -0.00000000       430.094635      -1.55771720    
   0.00000000       0.00000000       0.00000000       430.094635      -1.55771720    
  -1.84394205     -0.478437006      -0.00000000       430.094635      -1.55771720    
   0.00000000       0.00000000       0.00000000       431.218964      -1.55732751    
  -1.87057400     -0.360523999      -0.00000000       431.218964      -1.55732751    
  -1.88107097     -0.300992996      -0.00000000       431.218964      -1.55732751    
  -1.88967395     -0.241159007      -0.00000000       431.218964      -1.55732751    
  -1.82783401     -0.536701024      -0.00000000       429.256256      -1.55828929    
  -1.84394205     -0.478437006      -0.00000000       429.256256      -1.55828929    
   0.00000000       0.00000000       0.00000000       429.256256      -1.55828929    
  -1.80988598     -0.594424009      -0.00000000       429.256256      -1.55828929    
  -1.74518704     -0.763773024      -0.00000000       430.426971      -1.56011403    
  -1.76854098     -0.708016992      -0.00000000       430.426971      -1.56011403    
   0.00000000       0.00000000       0.00000000       430.426971      -1.56011403    
  -1.72007501     -0.818759024      -0.00000000       430.426971      -1.56011403    
   0.00000000       0.00000000       0.00000000       429.156982      -1.55907357    
  -1.76854098     -0.708016992      -0.00000000       429.156982      -1.55907357    
  -1.79011405     -0.651548028      -0.00000000       429.156982      -1.55907357    
  -1.80988598     -0.594424009      -0.00000000       429.156982      -1.55907357    
  -1.69323206     -0.872922003      -0.00000000       433.256592      -1.56141245    
  -1.72007501     -0.818759024      -0.00000000       433.256592      -1.56141245    
   0.00000000       0.00000000       0.00000000       433.256592      -1.56141245    
  -1.66468298     -0.926204979      -0.00000000       433.256592      -1.56141245    
  -1.56910396      -1.08024895      -0.00000000       442.995270      -1.56470847    
  -1.60258806      -1.02992105      -0.00000000       442.995270      -1.56470847    
   0.00000000       0.00000000       0.00000000       442.995270      -1.56470847    
  -1.53403997      -1.12949002      -0.00000000       442.995270      -1.56470847    
   0.00000000       0.00000000       0.00000000       437.625122      -1.56296074    
  -1.60258806      -1.02992105      -0.00000000       437.625122      -1.56296074    
  -1.63445795     -0.978555024      -0.00000000       437.625122      -1.56296074    
  -1.66468298     -0.926204979      -0.00000000       437.625122      -1.56296074    
  -1.49743104      -1.17759299      -0.00000000       448.429779      -1.56659019    
  -1.53403997      -1.12949002      -0.00000000       448.429779      -1.56659019    
   0.00000000       0.00000000       0.00000000       448.429779      -1.56659019    
  -1.45931494      -1.22450995      -0.00000000       448.429779      -1.56659019    
  -1.33631003      -1.35768199      -0.00000000       443.109772      -1.56978846    
  -1.37871301      -1.31459999      -0.00000000       443.109772      -1.56978846    
   0.00000000       0.00000000       0.00000000       443.109772      -1.56978846    
  -1.29255998      -1.39939702      -0.00000000       443.109772      -1.56978846    
   0.00000000       0.00000000       0.00000000       451.395996      -1.56844985    
  -1.37871301      -1.31459999      -0.00000000       451.395996      -1.56844985    
  -1.41972899      -1.27019501      -0.00000000       451.395996      -1.56844985    
  -1.45931494      -1.22450995      -0.00000000       451.395996      -1.56844985    
  -1.24750996      -1.43970299      -0.00000000       412.562653      -1.56995749    
  -1.29255998      -1.39939702      -0.00000000       412.562653      -1.56995749    
   0.00000000       0.00000000       0.00000000       412.562653      -1.56995749    
  -1.20120299      -1.47855902      -0.00000000       412.562653      -1.56995749    
  -1.05521798      -1.58604598      -0.00000000       327.529480      -1.56902993    
  -1.10500801      -1.55176699      -0.00000000       327.529480      -1.56902993    
   0.00000000       0.00000000       0.00000000       327.529480      -1.56902993    
  -1.00436401      -1.61872697      -0.00000000       327.529480      -1.56902993    
   0.00000000       0.00000000       0.00000000       370.903412      -1.56952941    
  -1.10500801      -1.55176699      -0.00000000       370.903412      -1.56952941    
  -1.15368605      -1.51592600      -0.00000000       370.903412      -1.56952941    
  -1.20120299      -1.47855902      -0.00000000       370.903412      -1.56952941    
 -0.952499986      -1.64977801      -0.00000000       285.166046      -1.56864536    
  -1.00436401      -1.61872697      -0.00000000       285.166046      -1.56864536    
   0.00000000       0.00000000       0.00000000       285.166046      -1.56864536    
 -0.899676025      -1.67916906      -0.00000000       285.166046      -1.56864536    
 -0.735987008      -1.75708497      -0.00000000       206.454727      -1.56871176    
 -0.791365981      -1.73284900      -0.00000000       206.454727      -1.56871176    
   0.00000000       0.00000000       0.00000000       206.454727      -1.56871176    
 -0.679867983      -1.77955198      -0.00000000       206.454727      -1.56871176    
   0.00000000       0.00000000       0.00000000       244.627991      -1.56848550    
 -0.791365981      -1.73284900      -0.00000000       244.627991      -1.56848550    
 -0.845947027      -1.70686805      -0.00000000       244.627991      -1.56848550    
 -0.899676025      -1.67916906      -0.00000000       244.627991      -1.56848550    
 -0.623063982      -1.80022705      -0.00000000       170.312698      -1.56947184    
 -0.679867983      -1.77955198      -0.00000000       170.312698      -1.56947184    
   0.00000000       0.00000000       0.00000000       170.312698      -1.56947184    
 -0.565632999      -1.81908906      -0.00000000       170.312698      -1.56947184    
 -0.390157014      -1.86461902      -0.00000000       102.199493      -1.57404387    
 -0.449120998      -1.85130095      -0.00000000       102.199493      -1.57404387    
   0.00000000       0.00000000       0.00000000       102.199493      -1.57404387    
 -0.330799997      -1.87605906      -0.00000000       102.199493      -1.57404387    
   0.00000000       0.00000000       0.00000000       135.706833      -1.57104671    
 -0.449120998      -1.85130095      -0.00000000       135.706833      -1.57104671    
 -0.507632971      -1.83611906      -0.00000000       135.706833      -1.57104671    
 -0.565632999      -1.81908906      -0.00000000       135.706833      -1.57104671    
 -0.271109998      -1.88560998      -0.00000000       69.5178452      -1.58023930    
 -0.330799997      -1.87605906      -0.00000000       69.5178452      -1.58023930    
   0.00000000       0.00000000       0.00000000       69.5178452      -1.58023930    
 -0.211146995      -1.89326203      -0.00000000       69.5178452      -1.58023930    
  -3.02249994E-02  -1.90476000      -0.00000000       5.24562740      -1.82926643    
  -9.06440020E-02  -1.90284204      -0.00000000       5.24562740      -1.82926643    
   0.00000000       0.00000000       0.00000000       5.24562740      -1.82926643    
   3.02249994E-02  -1.90476000      -0.00000000       5.24562740      -1.82926643    
   0.00000000       0.00000000       0.00000000       37.2992477      -1.59752774    
  -9.06440020E-02  -1.90284204      -0.00000000       37.2992477      -1.59752774    
 -0.150970995      -1.89900804      -0.00000000       37.2992477      -1.59752774    
 -0.211146995      -1.89326203      -0.00000000       37.2992477      -1.59752774    
   9.06440020E-02  -1.90284204      -0.00000000       27.1703358       1.63288295    
   3.02249994E-02  -1.90476000      -0.00000000       27.1703358       1.63288295    
   0.00000000       0.00000000       0.00000000       27.1703358       1.63288295    
  0.150970995      -1.89900804      -0.00000000       27.1703358       1.63288295    
  0.330799997      -1.87605906      -0.00000000       91.8252792       1.59648526    
  0.271109998      -1.88560998      -0.00000000       91.8252792       1.59648526    
   0.00000000       0.00000000       0.00000000       91.8252792       1.59648526    
  0.390157014      -1.86461902      -0.00000000       91.8252792       1.59648526    
   0.00000000       0.00000000       0.00000000       59.3752060       1.60494292    
  0.271109998      -1.88560998      -0.00000000       59.3752060       1.60494292    
  0.211146995      -1.89326203      -0.00000000       59.3752060       1.60494292    
  0.150970995      -1.89900804      -0.00000000       59.3752060       1.60494292    
  0.449120998      -1.85130095      -0.00000000       124.949883       1.59214640    
  0.390157014      -1.86461902      -0.00000000       124.949883       1.59214640    
   0.00000000       0.00000000       0.00000000       124.949883       1.59214640    
  0.507632971      -1.83611906      -0.00000000       124.949883       1.59214640    
  0.679867983      -1.77955198      -0.00000000       193.935928       1.58720887    
  0.623063982      -1.80022705      -0.00000000       193.935928       1.58720887    
   0.00000000       0.00000000       0.00000000       193.935928       1.58720887    
  0.735987008      -1.75708497      -0.00000000       193.935928       1.58720887    
   0.00000000       0.00000000       0.00000000       158.899063       1.58933806    
  0.623063982      -1.80022705      -0.00000000       158.899063       1.58933806    
  0.565632999      -1.81908906      -0.00000000       158.899063       1.58933806    
  0.507632971      -1.83611906      -0.00000000       158.899063       1.58933806    
  0.791365981      -1.73284900      -0.00000000       230.699219       1.58535028    
  0.735987008      -1.75708497      -0.00000000       230.699219       1.58535028    
   0.00000000       0.00000000       0.00000000       230.699219       1.58535028    
  0.845947027      -1.70686805      -0.00000000       230.699219       1.58535028    
   1.00436401      -1.61872697      -0.00000000       310.288940       1.58198023    
  0.952499986      -1.64977801      -0.00000000       310.288940       1.58198023    
   0.00000000       0.00000000       0.00000000       310.288940       1.58198023    
   1.05521798      -1.58604598      -0.00000000       310.288940       1.58198023    
   0.00000000       0.00000000       0.00000000       269.476074       1.58362651    
  0.952499986      -1.64977801      -0.00000000       269.476074       1.58362651    
  0.899676025      -1.67916906      -0.00000000       269.476074       1.58362651    
  0.845947027      -1.70686805      -0.00000000       269.476074       1.58362651    
   1.10500801      -1.55176699      -0.00000000       352.546661       1.58044016    
   1.05521798      -1.58604598      -0.00000000       352.546661       1.58044016    
   0.00000000       0.00000000       0.00000000       352.546661       1.58044016    
   1.15368605      -1.51592600      -0.00000000       352.546661       1.58044016    
   1.29255998      -1.39939702      -0.00000000       435.775482       1.57792318    
   1.24750996      -1.43970299      -0.00000000       435.775482       1.57792318    
   0.00000000       0.00000000       0.00000000       435.775482       1.57792318    
   1.33631003      -1.35768199      -0.00000000       435.775482       1.57792318    
   0.00000000       0.00000000       0.00000000       395.294891       1.57903755    
   1.24750996      -1.43970299      -0.00000000       395.294891       1.57903755    
   1.20120299      -1.47855902      -0.00000000       395.294891       1.57903755    