VARIABLES="w (rad/s)"  
"abs(F   1   1)" "angle(F   1   1)"
"abs(F   1   2)" "angle(F   1   2)"
"abs(F   1   3)" "angle(F   1   3)"
"abs(F   1   4)" "angle(F   1   4)"
"abs(F   1   5)" "angle(F   1   5)"
"abs(F   1   6)" "angle(F   1   6)"
Zone t="Excitation force - beta =   0.000 deg",I=    50,F=POINT
  0.1000000E+00  0.1360899E+05 -0.1570795E+01  0.1594088E-01  0.1740928E-02  0.7512124E+06 -0.4015042E-04  0.1218185E+01 -0.2098067E-04  0.4214970E+05 -0.1570790E+01  0.2486769E-03 -0.2946303E+01
  0.1387755E+00  0.2611272E+05 -0.1570799E+01  0.6036231E-01 -0.4151356E-02  0.7415748E+06 -0.1470490E-03  0.1080735E+01 -0.7540075E-03  0.8100102E+05 -0.1570798E+01  0.1472299E-02 -0.3030699E+01
  0.1775510E+00  0.4253735E+05 -0.1570785E+01  0.3996100E-01 -0.6822266E-02  0.7289433E+06 -0.3875172E-03  0.2490834E+00 -0.1679144E-02  0.1322211E+06 -0.1570780E+01  0.1975158E-02 -0.2996764E+01
  0.2163265E+00  0.6276910E+05 -0.1570761E+01  0.9056365E-01 -0.3138502E+01  0.7134502E+06 -0.8366758E-03  0.8581778E-01  0.3134806E+01  0.1956064E+06 -0.1570761E+01  0.7211366E-03  0.1104474E+00
  0.2551020E+00  0.8667403E+05 -0.1570701E+01  0.1210130E+00  0.8556037E-02  0.6952748E+06 -0.1579434E-02  0.2157916E+01 -0.3230622E-02  0.2709305E+06 -0.1570702E+01  0.6807862E-03  0.2364483E+01
  0.2938775E+00  0.1140958E+06 -0.1570577E+01  0.8900532E-01 -0.2206693E-01  0.6746284E+06 -0.2706104E-02  0.6393657E+00 -0.3112889E+01  0.3579225E+06 -0.1570578E+01  0.1603049E-02 -0.3971223E+00
  0.3326530E+00  0.1448660E+06 -0.1570345E+01  0.3307537E-01  0.1936377E+00  0.6517622E+06 -0.4308286E-02  0.5687493E-01  0.1476800E+00  0.4563095E+06 -0.1570347E+01  0.1716758E-02 -0.1968441E+00
  0.3714286E+00  0.1788012E+06 -0.1569945E+01  0.3054648E-01  0.8105848E-01  0.6269495E+06 -0.6475448E-02  0.1260522E+01 -0.3136186E+01  0.5657974E+06 -0.1569945E+01  0.1077702E-02  0.1103530E+01
  0.4102041E+00  0.2157105E+06 -0.1569292E+01  0.1184874E-01  0.2970406E+01  0.6004849E+06 -0.9292278E-02  0.9395105E+00 -0.3127244E+01  0.6860944E+06 -0.1569292E+01  0.2575990E-02  0.2611378E+01
  0.4489796E+00  0.2553942E+06 -0.1568283E+01  0.1582413E+00  0.3071841E+01  0.5726751E+06 -0.1283736E-01  0.2684575E+00  0.3035670E+01  0.8169053E+06 -0.1568283E+01  0.1328015E-02  0.1936236E+01
  0.4877551E+00  0.2976428E+06 -0.1566792E+01  0.8866490E-01  0.3121644E-01  0.5438164E+06 -0.1718262E-01  0.3488981E-01  0.2402171E+01  0.9579082E+06 -0.1566792E+01  0.1219134E-02  0.5374340E+00
  0.5265306E+00  0.3422421E+06 -0.1564667E+01  0.4092079E-02  0.2173221E+01  0.5142149E+06 -0.2239434E-01  0.1336399E+01  0.3111172E+01  0.1108804E+07 -0.1564667E+01  0.3137719E-02  0.2549527E+01
  0.5653061E+00  0.3889563E+06 -0.1561735E+01  0.4063428E-02 -0.5278451E+00  0.4841836E+06 -0.2853545E-01  0.2143217E+01 -0.3132543E+01  0.1269241E+07 -0.1561735E+01  0.1501741E-02  0.2264866E+01
  0.6040816E+00  0.4375299E+06 -0.1557801E+01  0.5026865E-01  0.2615098E+01  0.4539729E+06 -0.3566505E-01  0.6551796E+00 -0.1571783E+00  0.1438758E+07 -0.1557802E+01  0.7132735E-03 -0.1415092E+01
  0.6428572E+00  0.4876852E+06 -0.1552655E+01  0.4619590E-01  0.4671032E+00  0.4238683E+06 -0.4384414E-01  0.5097578E-01 -0.1606896E+01  0.1616898E+07 -0.1552655E+01  0.1769837E-02 -0.1824139E+01
  0.6816327E+00  0.5390731E+06 -0.1546076E+01  0.3822635E-01 -0.2751989E+01  0.3940948E+06 -0.5313419E-01  0.1105193E+00 -0.2093576E+01  0.1802894E+07 -0.1546076E+01  0.2553283E-02  0.1722094E+01
  0.7204082E+00  0.5913172E+06 -0.1537838E+01  0.4982743E-01  0.1308608E+00  0.3648815E+06 -0.6360143E-01  0.2889431E+01  0.3105866E+01  0.1995912E+07 -0.1537838E+01  0.4154257E-02 -0.1417708E+01
  0.7591837E+00  0.6439205E+06 -0.1527728E+01  0.1313240E+00  0.2914363E+01  0.3364162E+06 -0.7531612E-01  0.7109863E+00  0.3107629E+01  0.2194621E+07 -0.1527728E+01  0.6462283E-03  0.2017031E+01
  0.7979592E+00  0.6963289E+06 -0.1515554E+01  0.9338695E-01  0.5001782E-01  0.3088928E+06 -0.8835499E-01  0.5158607E+00  0.1225934E+00  0.2397523E+07 -0.1515553E+01  0.1550101E-02 -0.1603025E+01
  0.8367347E+00  0.7478369E+06 -0.1501165E+01  0.3711734E-01 -0.2571240E+01  0.2824201E+06 -0.1027962E+00  0.1230000E+01  0.1311579E-01  0.2602364E+07 -0.1501165E+01  0.7998013E-03 -0.1753266E+00
  0.8755102E+00  0.7976350E+06 -0.1484476E+01  0.3541776E-01  0.1887681E+00  0.2571776E+06 -0.1187232E+00  0.7431719E+00 -0.2474362E+00  0.2806604E+07 -0.1484475E+01  0.6392729E-03 -0.1778386E+01
  0.9142857E+00  0.8447854E+06 -0.1465487E+01  0.5850175E-01  0.2453506E+01  0.2332006E+06 -0.1362264E+00  0.1708629E+01 -0.3234910E-01  0.3006926E+07 -0.1465487E+01  0.1134856E-02  0.2743965E+01
  0.9530612E+00  0.8882466E+06 -0.1444314E+01  0.2317683E-01  0.4823282E+00  0.2106059E+06 -0.1553836E+00  0.4714999E+00 -0.3064456E+01  0.3199545E+07 -0.1444314E+01  0.6253471E-03  0.9460202E+00
  0.9918368E+00  0.9269409E+06 -0.1421200E+01  0.7465148E-01 -0.1795892E+01  0.1894583E+06 -0.1762696E+00  0.1002954E+01  0.3034868E+01  0.3380342E+07 -0.1421200E+01  0.7905351E-02 -0.1687463E+01
  0.1030612E+01  0.9597557E+06 -0.1396538E+01  0.6501769E-01  0.2664239E+01  0.1697195E+06 -0.1989969E+00  0.7569464E+00 -0.3075321E+01  0.3544681E+07 -0.1396538E+01  0.3990980E-02  0.1117897E+01
  0.1069388E+01  0.9857171E+06 -0.1370867E+01  0.6281209E-01  0.1269095E+01  0.1514579E+06 -0.2235940E+00  0.5653604E+00 -0.1697181E-01  0.3688308E+07 -0.1370867E+01  0.3488520E-02 -0.1120938E+01
  0.1108163E+01  0.1004051E+07 -0.1344860E+01  0.9318853E-02 -0.4670810E+00  0.1346632E+06 -0.2501042E+00  0.3726948E+00  0.3369003E+00  0.3807415E+07 -0.1344861E+01  0.2262644E-02  0.3482019E+00
  0.1146939E+01  0.1014245E+07 -0.1319289E+01  0.2134635E-01  0.2358570E+01  0.1192446E+06 -0.2786908E+00  0.1738165E+00 -0.3045285E+01  0.3898836E+07 -0.1319291E+01  0.2292337E-02  0.1502222E+01
  0.1185714E+01  0.1016167E+07 -0.1294983E+01  0.7614969E-01 -0.3108089E-01  0.1052078E+06 -0.3092991E+00  0.2526139E+00 -0.2602662E+01  0.3960844E+07 -0.1294985E+01  0.2802382E-02  0.2270893E+01
  0.1224490E+01  0.1010050E+07 -0.1272770E+01  0.1191410E+00 -0.1457399E+01  0.9249970E+05 -0.3419208E+00  0.1680898E+00  0.2909632E+01  0.3992991E+07 -0.1272772E+01  0.2740246E-02 -0.4026237E+00
  0.1263265E+01  0.9965007E+06 -0.1253423E+01  0.7259483E-01 -0.1108419E+01  0.8103047E+05 -0.3766742E+00  0.2064371E+00 -0.6130422E+00  0.3996190E+07 -0.1253427E+01  0.4583660E-02  0.2522498E+01
  0.1302041E+01  0.9763621E+06 -0.1237618E+01  0.3972229E-01 -0.2270912E+01  0.7072340E+05 -0.4136299E+00  0.8021302E+00 -0.1301695E-01  0.3972459E+07 -0.1237624E+01  0.3535318E-02 -0.5574995E+00
  0.1340816E+01  0.9506920E+06 -0.1225905E+01  0.4983306E-01  0.1912622E+01  0.6152092E+05 -0.4526211E+00  0.2878549E+00 -0.2154948E+01  0.3924845E+07 -0.1225911E+01  0.7098878E-02  0.5709980E+00
  0.1379592E+01  0.9206239E+06 -0.1218685E+01  0.1080813E+00  0.1600091E+01  0.5333980E+05 -0.4936151E+00  0.5420498E+00 -0.9056158E-01  0.3856928E+07 -0.1218692E+01  0.2915560E-02 -0.1641563E+01
  0.1418367E+01  0.8872802E+06 -0.1216221E+01  0.1895799E-01 -0.2380526E+01  0.4608418E+05 -0.5368304E+00  0.1241806E+00  0.2862988E+01  0.3772391E+07 -0.1216232E+01  0.4178470E-02 -0.1768005E+00
  0.1457143E+01  0.8516873E+06 -0.1218651E+01  0.2632415E-01 -0.2521056E+01  0.3967877E+05 -0.5822338E+00  0.4217999E+00  0.3066919E+01  0.3674849E+07 -0.1218665E+01  0.2329291E-02  0.1191958E+01
  0.1495918E+01  0.8147704E+06 -0.1226006E+01  0.4052534E-01  0.1796386E+00  0.3405189E+05 -0.6295764E+00  0.1963169E+00  0.1420206E+01  0.3567730E+07 -0.1226022E+01  0.2671066E-02 -0.2017781E+01
  0.1534694E+01  0.7772960E+06 -0.1238234E+01  0.5068368E-01  0.1816824E+01  0.2912576E+05 -0.6788365E+00  0.3772702E+00  0.2900088E+01  0.3454010E+07 -0.1238250E+01  0.1459266E-02  0.1108217E+01
  0.1573469E+01  0.7399051E+06 -0.1255214E+01  0.1129434E+00 -0.1201768E+01  0.2482543E+05 -0.7300585E+00  0.9235019E+00 -0.2903830E+01  0.3336231E+07 -0.1255233E+01  0.8004752E-02  0.1366653E+01
  0.1612245E+01  0.7030679E+06 -0.1276793E+01  0.3503168E-02  0.2832506E+01  0.2108290E+05 -0.7835145E+00  0.1100487E+01 -0.2882867E+01  0.3216398E+07 -0.1276818E+01  0.2050385E-02  0.2033493E+01
  0.1651020E+01  0.6671565E+06 -0.1302793E+01  0.1126403E+00  0.1458464E+01  0.1783964E+05 -0.8387083E+00  0.4017246E+00  0.1412687E+00  0.3096221E+07 -0.1302818E+01  0.4168394E-02  0.2374579E+01
  0.1689796E+01  0.6324364E+06 -0.1333016E+01  0.2942326E-01  0.7347004E+00  0.1503609E+05 -0.8955652E+00  0.2572047E+00 -0.1888728E+01  0.2977000E+07 -0.1333040E+01  0.2878471E-02  0.1408444E+00
  0.1728571E+01  0.5990856E+06 -0.1367265E+01  0.1024653E-01  0.1537444E+01  0.1261781E+05 -0.9541822E+00  0.3101617E+00 -0.1289789E+01  0.2859733E+07 -0.1367286E+01  0.5181011E-02 -0.1480891E+01
  0.1767347E+01  0.5672171E+06 -0.1405341E+01  0.3739355E-01  0.1533002E+01  0.1053573E+05 -0.1014533E+01  0.2384080E+00  0.1460124E+01  0.2745136E+07 -0.1405360E+01  0.2349140E-02 -0.1455472E+01
  0.1806122E+01  0.5368828E+06 -0.1447061E+01  0.1960995E-01 -0.1546410E+01  0.8745983E+04 -0.1076277E+01  0.6114010E+00  0.1639467E+01  0.2633699E+07 -0.1447078E+01  0.7430534E-02 -0.1663021E+01
  0.1844898E+01  0.5081059E+06 -0.1492245E+01  0.2654472E-01 -0.3655538E+00  0.7207706E+04 -0.1139051E+01  0.2704140E+00  0.2981922E+01  0.2525804E+07 -0.1492256E+01  0.4124278E-02 -0.1537493E+01
  0.1883674E+01  0.4808736E+06 -0.1540728E+01  0.4499460E-01  0.1974077E+01  0.5883359E+04 -0.1202885E+01  0.2761075E+00  0.1852419E+01  0.2421666E+07 -0.1540728E+01  0.6356527E-02 -0.1619384E+01
  0.1922449E+01  0.4551541E+06 -0.1592352E+01  0.1770926E-01 -0.2895040E+01  0.4737741E+04 -0.1267704E+01  0.1922292E+00  0.3234755E+00  0.2321418E+07 -0.1592337E+01  0.7088283E-02  0.1450997E+01
  0.1961224E+01  0.4308956E+06 -0.1646970E+01  0.1448349E-01 -0.1416533E+01  0.3734293E+04 -0.1333076E+01  0.3526736E+00 -0.4125483E+00  0.2225082E+07 -0.1646939E+01  0.5382164E-02  0.1435843E+01
  0.2000000E+01  0.4080401E+06 -0.1704440E+01  0.3373132E-01 -0.1726128E+01  0.2826983E+04 -0.1396430E+01  0.5403987E-01 -0.1520762E+01  0.2132653E+07 -0.1704402E+01  0.2227574E-02 -0.1405648E+01
