VARIABLES="w (rad/s)"
"abs(F   1   1)" "angle(F   1   1)"
"abs(F   1   2)" "angle(F   1   2)"
"abs(F   1   3)" "angle(F   1   3)"
"abs(F   1   4)" "angle(F   1   4)"
"abs(F   1   5)" "angle(F   1   5)"
"abs(F   1   6)" "angle(F   1   6)"
Zone t="FKforce - beta =   0.000",I=    50,F=POINT
  0.1000000E+00  0.7725105E+04 -0.1570795E+01  0.1562521E-01 -0.5157425E-02  0.7539767E+06 -0.1669614E-09  0.1219238E+01 -0.4536694E-04  0.2406879E+05 -0.1570786E+01  0.2461607E-03 -0.3013393E+01
  0.1387755E+00  0.1480751E+05 -0.1570806E+01  0.6036378E-01 -0.5292593E-03  0.7468878E+06 -0.1021491E-10  0.1084961E+01 -0.2953420E-03  0.4620800E+05 -0.1570803E+01  0.1469457E-02 -0.3062332E+01
  0.1775510E+00  0.2408743E+05 -0.1570796E+01  0.4077148E-01  0.2572979E-03  0.7375931E+06  0.4137455E-10  0.2490236E+00 -0.1102941E-02  0.7532423E+05 -0.1570787E+01  0.1963172E-02 -0.3040377E+01
  0.2163265E+00  0.3548040E+05 -0.1570797E+01  0.9009093E-01  0.3133378E+01  0.7261710E+06 -0.2731647E-09  0.7861388E-01  0.3137711E+01  0.1112410E+06 -0.1570798E+01  0.7979285E-03 -0.4080305E+00
  0.2551020E+00  0.4888325E+05 -0.1570796E+01  0.1217652E+00 -0.7675437E-03  0.7127184E+06 -0.1027646E-08  0.2158691E+01 -0.9189097E-04  0.1537422E+06 -0.1570798E+01  0.8056872E-03  0.2221873E+01
  0.2938775E+00  0.6417539E+05 -0.1570795E+01  0.8679417E-01 -0.7076183E-02  0.6973483E+06 -0.8752463E-10  0.6079102E+00  0.3141342E+01  0.2025729E+06 -0.1570798E+01  0.1506298E-02 -0.2351510E+00
  0.3326530E+00  0.8122005E+05 -0.1570795E+01  0.3332598E-01 -0.6868024E-02  0.6801879E+06 -0.4486639E-10  0.5715824E-01  0.3204031E-01  0.2574434E+06 -0.1570798E+01  0.1747781E-02 -0.2110933E+00
  0.3714286E+00  0.9986635E+05 -0.1570796E+01  0.2705525E-01 -0.3511536E-01  0.6613769E+06  0.4614249E-09  0.1285663E+01 -0.3136204E+01  0.3180297E+06 -0.1570796E+01  0.5529074E-03  0.4883339E+00
  0.4102041E+00  0.1199510E+06 -0.1570797E+01  0.4411453E-02 -0.2889903E+01  0.6410672E+06 -0.1904173E-09  0.9252931E+00  0.3141131E+01  0.3839785E+06 -0.1570797E+01  0.2207626E-02  0.3044675E+01
  0.4489796E+00  0.1412993E+06 -0.1570796E+01  0.1528985E+00 -0.3133160E+01  0.6194196E+06 -0.1970721E-09  0.3100595E+00  0.3139230E+01  0.4549075E+06 -0.1570796E+01  0.5270360E-03 -0.2755710E+01
  0.4877551E+00  0.1637288E+06 -0.1570797E+01  0.8636511E-01  0.2915186E-02  0.5966020E+06  0.5115232E-09  0.3518935E-01 -0.3098217E+01  0.5304103E+06 -0.1570796E+01  0.1128016E-02  0.5241796E+00
  0.5265306E+00  0.1870501E+06 -0.1570796E+01  0.5946666E-02  0.2875453E+01  0.5727884E+06 -0.2983623E-08  0.1374025E+01 -0.3140349E+01  0.6100591E+06 -0.1570796E+01  0.2722058E-02  0.2798569E+01
  0.5653061E+00  0.2110685E+06 -0.1570796E+01  0.1200836E-01  0.1672377E+00  0.5481549E+06  0.3117703E-08  0.2078126E+01 -0.3140594E+01  0.6934068E+06 -0.1570797E+01  0.1831055E-02  0.2214298E+01
  0.6040816E+00  0.2355887E+06 -0.1570796E+01  0.4484303E-01 -0.3097684E+01  0.5228794E+06 -0.3735326E-08  0.5717776E+00 -0.1067463E-02  0.7799909E+06 -0.1570797E+01  0.2105713E-02 -0.1570796E+01
  0.6428572E+00  0.2604135E+06 -0.1570796E+01  0.3747737E-01 -0.9771676E-02  0.4971382E+06  0.2455460E-09  0.1001003E+00  0.7316943E-02  0.8693351E+06 -0.1570796E+01  0.6171798E-03  0.2992703E+01
  0.6816327E+00  0.2853478E+06 -0.1570796E+01  0.4086394E-01  0.3102375E+01  0.4711059E+06 -0.5959630E-08  0.1417330E-01 -0.3098516E+01  0.9609556E+06 -0.1570797E+01  0.6103516E-03  0.1570796E+01
  0.7204082E+00  0.3102002E+06 -0.1570796E+01  0.5774073E-01  0.7135185E-02  0.4449512E+06 -0.2743454E-08  0.2941427E+01  0.3137837E+01  0.1054356E+07 -0.1570796E+01  0.1371594E-02 -0.1007480E+01
  0.7591837E+00  0.3347845E+06 -0.1570796E+01  0.1306785E+00  0.3135754E+01  0.4188372E+06  0.4080307E-08  0.4768349E+00 -0.3130712E+01  0.1149039E+07 -0.1570796E+01  0.2210787E-02 -0.1681454E+01
  0.7979592E+00  0.3589206E+06 -0.1570797E+01  0.5748467E-01  0.1013062E+00  0.3929184E+06  0.6213519E-09  0.5986328E+00 -0.3058728E-03  0.1244503E+07 -0.1570796E+01  0.1258272E-02 -0.1969319E+01
  0.8367347E+00  0.3824388E+06 -0.1570796E+01  0.1536826E-02  0.1194289E+00  0.3673400E+06  0.8972338E-08  0.1178468E+01  0.1294799E-02  0.1340243E+07 -0.1570796E+01  0.9296598E-03 -0.1165905E+01
  0.8755102E+00  0.4051770E+06 -0.1570796E+01  0.5468138E-01  0.9333786E-01  0.3422367E+06  0.4636890E-08  0.7558793E+00  0.7267314E-02  0.1435756E+07 -0.1570796E+01  0.7425247E-03 -0.1405648E+01
  0.9142857E+00  0.4269848E+06 -0.1570796E+01  0.4641154E-01 -0.3011692E+01  0.3177315E+06  0.5378705E-08  0.1622810E+01  0.3084088E-02  0.1530545E+07 -0.1570796E+01  0.1244878E-02  0.1768192E+01
  0.9530612E+00  0.4477235E+06 -0.1570796E+01  0.2684279E-01  0.2002941E+00  0.2939348E+06  0.1661189E-08  0.3897560E+00  0.3118101E+01  0.1624113E+07 -0.1570796E+01  0.1863322E-02 -0.1019141E+01
  0.9918368E+00  0.4672671E+06 -0.1570796E+01  0.9465370E-02  0.2779048E+01  0.2709443E+06 -0.1802146E-08  0.1066930E+01 -0.3133469E+01  0.1715963E+07 -0.1570796E+01  0.5200897E-02 -0.1500325E+01
  0.1030612E+01  0.4855014E+06 -0.1570796E+01  0.1845685E-01  0.3015597E+01  0.2488439E+06 -0.1422594E-07  0.7781609E+00  0.3107545E+01  0.1805618E+07 -0.1570796E+01  0.2013235E-02  0.1325818E+01
  0.1069388E+01  0.5023273E+06 -0.1570796E+01  0.7211776E-02  0.3498556E+00  0.2277041E+06 -0.7505285E-08  0.7204590E+00  0.0000000E+00  0.1892597E+07 -0.1570796E+01  0.1835119E-02  0.6656817E-01
  0.1108163E+01  0.5176564E+06 -0.1570796E+01  0.1883083E-01  0.2990299E+01  0.2075819E+06 -0.1411341E-07  0.4479203E+00  0.2725606E-01  0.1976434E+07 -0.1570796E+01  0.3860202E-03  0.1892547E+01
  0.1146939E+01  0.5314167E+06 -0.1570796E+01  0.2810270E-02  0.1527345E+01  0.1885208E+06  0.1554040E-07  0.5667902E-01  0.2875718E+01  0.2056670E+07 -0.1570796E+01  0.1591602E-02  0.1494024E+01
  0.1185714E+01  0.5435461E+06 -0.1570796E+01  0.9183958E-01  0.4753569E-01  0.1705516E+06 -0.1216755E-07  0.2428366E+00 -0.3093316E+01  0.2132854E+07 -0.1570796E+01  0.2504673E-02  0.7509291E+00
  0.1224490E+01  0.5539982E+06 -0.1570796E+01  0.3027030E-01  0.3032494E+01  0.1536928E+06 -0.3971245E-08  0.1754202E+00 -0.3133938E+01  0.2204560E+07 -0.1570796E+01  0.2729575E-03  0.2677945E+01
  0.1263265E+01  0.5627362E+06 -0.1570796E+01  0.1078994E-01 -0.7773983E+00  0.1379507E+06 -0.5309301E-08  0.6195549E-01  0.7790525E-01  0.2271361E+07 -0.1570796E+01  0.2783631E-02  0.2231839E+01
  0.1302041E+01  0.5697366E+06 -0.1570796E+01  0.1777069E-01 -0.2530726E+01  0.1233217E+06 -0.1088838E-07  0.7796112E+00  0.4853951E-02  0.2332858E+07 -0.1570796E+01  0.1220703E-03 -0.1570796E+01
  0.1340816E+01  0.5749868E+06 -0.1570796E+01  0.2649912E-01 -0.1107844E+00  0.1097915E+06 -0.8894700E-08  0.4449731E-01  0.3088072E+01  0.2388652E+07 -0.1570796E+01  0.1726335E-02  0.1428899E+01
  0.1379592E+01  0.5784829E+06 -0.1570796E+01  0.3985203E-02  0.4602230E+00  0.9733743E+05 -0.6270471E-08  0.5819765E+00 -0.4826153E-01  0.2438384E+07 -0.1570796E+01  0.4816753E-02 -0.1723446E+01
  0.1418367E+01  0.5802328E+06 -0.1570796E+01  0.1383143E-01 -0.3022164E+01  0.8592879E+05  0.2130898E-07  0.1625515E+00 -0.3128075E+01  0.2481698E+07 -0.1570796E+01  0.1696953E-02  0.2228685E+01
  0.1457143E+01  0.5802515E+06 -0.1570796E+01  0.1440481E-02 -0.2506566E+01  0.7552813E+05  0.0000000E+00  0.4669629E+00 -0.3134012E+01  0.2518271E+07 -0.1570796E+01  0.2076093E-02  0.1541393E+01
  0.1495918E+01  0.5785616E+06 -0.1570796E+01  0.1983708E-01  0.2360237E+00  0.6609234E+05 -0.1015831E-07  0.1193706E+00 -0.1981476E+00  0.2547796E+07 -0.1570796E+01  0.1628621E-02 -0.1343997E+01
  0.1534694E+01  0.5751942E+06 -0.1570796E+01  0.1004395E-01  0.2781399E+01  0.5757383E+05  0.1166132E-07  0.3826998E+00 -0.3134575E+01  0.2570001E+07 -0.1570796E+01  0.1896024E-02  0.9917220E+00
  0.1573469E+01  0.5701851E+06 -0.1570796E+01  0.5526673E-01  0.6631105E-01  0.4992132E+05 -0.7335762E-08  0.1002838E+01  0.3141227E+01  0.2584632E+07 -0.1570796E+01  0.7980449E-02  0.1463517E+01
  0.1612245E+01  0.5635779E+06 -0.1570796E+01  0.2311341E-02  0.1886284E+01  0.4308107E+05 -0.4250253E-08  0.1015994E+01  0.3127985E+01  0.2591482E+07 -0.1570796E+01  0.1351415E-02  0.1683947E+01
  0.1651020E+01  0.5554199E+06 -0.1570796E+01  0.5600620E-02  0.2872815E+00  0.3699777E+05  0.1649699E-07  0.3689195E+00  0.3342572E-01  0.2590362E+07 -0.1570796E+01  0.3412651E-02  0.1833127E+01
  0.1689796E+01  0.5457641E+06 -0.1570796E+01  0.2147756E-01  0.5402067E-01  0.3161537E+05  0.9652767E-08  0.1009028E+00 -0.2969868E+01  0.2581132E+07 -0.1570796E+01  0.6573687E-03  0.1951303E+01
  0.1728571E+01  0.5346659E+06 -0.1570796E+01  0.1091408E-01 -0.1016050E+01  0.2687785E+05 -0.2270834E-08  0.7053287E-01 -0.4216949E+00  0.2563680E+07 -0.1570796E+01  0.5373716E-02 -0.1602036E+01
  0.1767347E+01  0.5221867E+06 -0.1570796E+01  0.5202488E-02 -0.1496119E+01  0.2272999E+05 -0.4430622E-07  0.3711171E-01 -0.1079329E+00  0.2537946E+07 -0.1570796E+01  0.2462844E-02 -0.1438757E+01
  0.1806122E+01  0.5083902E+06 -0.1570796E+01  0.2519179E-02  0.8496871E+00  0.1911793E+05 -0.5586980E-07  0.8211585E-01 -0.2992383E+01  0.2503908E+07 -0.1570796E+01  0.6958046E-02 -0.1574086E+01
  0.1844898E+01  0.4933441E+06 -0.1570796E+01  0.2661501E-01 -0.3781642E+00  0.1598975E+05  0.3817142E-08  0.2831744E+00  0.3133240E+01  0.2461594E+07 -0.1570796E+01  0.3786671E-02 -0.1534522E+01
  0.1883674E+01  0.4771190E+06 -0.1570796E+01  0.1575843E-01  0.3083462E+01  0.1329579E+05 -0.1377169E-07  0.6642839E-01  0.3107820E+01  0.2411077E+07 -0.1570796E+01  0.4409763E-02 -0.1653938E+01
  0.1922449E+01  0.4597888E+06 -0.1570796E+01  0.1294078E-01 -0.2697984E+01  0.1098912E+05 -0.5554145E-08  0.2036765E+00 -0.1445944E-01  0.2352485E+07 -0.1570796E+01  0.5982146E-02  0.1586101E+01
  0.1961224E+01  0.4414307E+06 -0.1570796E+01  0.6861842E-02 -0.1258891E+01  0.9025655E+04 -0.1234139E-06  0.3095912E+00 -0.9190150E-01  0.2285991E+07 -0.1570796E+01  0.3431566E-02  0.1481747E+01
  0.2000000E+01  0.4221244E+06 -0.1570796E+01  0.1044473E-01  0.2770853E+01  0.7364456E+04  0.4351096E-07  0.8129109E-02 -0.2384237E+01  0.2211832E+07 -0.1570796E+01  0.2210787E-02 -0.1460139E+01
