 VARIABLES="X" "Y" "Z" "abs(p) (Pa)" "angle(p) (rad)"
ZONE N=   1080,E =     600, F=FEPOINT, ET=QUADRILATERAL
   4.82962894       1.29409504      -10.0000000       3649.95654      0.289222091    
   4.82962894       1.29409504      -9.00000000       3649.95654      0.289222091    
   4.91481400      0.647047520      -9.00000000       3649.95654      0.289222091    
   4.91481400      0.647047520      -10.0000000       3649.95654      0.289222091    
   4.82962894       1.29409504      -9.00000000       5136.13965      0.270145833    
   4.82962894       1.29409504      -8.00000000       5136.13965      0.270145833    
   4.91481400      0.647047520      -8.00000000       5136.13965      0.270145833    
   4.91481400      0.647047520      -9.00000000       5136.13965      0.270145833    
   4.82962894       1.29409504      -8.00000000       6604.29297      -5.25828041E-02
   4.82962894       1.29409504      -7.00000000       6604.29297      -5.25828041E-02
   4.91481400      0.647047520      -7.00000000       6604.29297      -5.25828041E-02
   4.91481400      0.647047520      -8.00000000       6604.29297      -5.25828041E-02
   4.82962894       1.29409504      -7.00000000       9086.23730     -0.317859769    
   4.82962894       1.29409504      -6.00000000       9086.23730     -0.317859769    
   4.91481400      0.647047520      -6.00000000       9086.23730     -0.317859769    
   4.91481400      0.647047520      -7.00000000       9086.23730     -0.317859769    
   4.82962894       1.29409504      -6.00000000       12581.4268     -0.472052366    
   4.82962894       1.29409504      -5.00000000       12581.4268     -0.472052366    
   4.91481400      0.647047520      -5.00000000       12581.4268     -0.472052366    
   4.91481400      0.647047520      -6.00000000       12581.4268     -0.472052366    
   4.82962894       1.29409504      -5.00000000       16965.3008     -0.546618283    
   4.82962894       1.29409504      -4.00000000       16965.3008     -0.546618283    
   4.91481400      0.647047520      -4.00000000       16965.3008     -0.546618283    
   4.91481400      0.647047520      -5.00000000       16965.3008     -0.546618283    
   4.82962894       1.29409504      -4.00000000       22246.2266     -0.572399557    
   4.82962894       1.29409504      -3.00000000       22246.2266     -0.572399557    
   4.91481400      0.647047520      -3.00000000       22246.2266     -0.572399557    
   4.91481400      0.647047520      -4.00000000       22246.2266     -0.572399557    
   4.82962894       1.29409504      -3.00000000       28618.6836     -0.570113003    
   4.82962894       1.29409504      -2.00000000       28618.6836     -0.570113003    
   4.91481400      0.647047520      -2.00000000       28618.6836     -0.570113003    
   4.91481400      0.647047520      -3.00000000       28618.6836     -0.570113003    
   4.82962894       1.29409504      -2.00000000       36482.8984     -0.554537714    
   4.82962894       1.29409504      -1.00000000       36482.8984     -0.554537714    
   4.91481400      0.647047520      -1.00000000       36482.8984     -0.554537714    
   4.91481400      0.647047520      -2.00000000       36482.8984     -0.554537714    
   4.82962894       1.29409504      -1.00000000       46426.3672     -0.537145853    
   4.82962894       1.29409504       0.00000000       46426.3672     -0.537145853    
   4.91481400      0.647047520       0.00000000       46426.3672     -0.537145853    
   4.91481400      0.647047520      -1.00000000       46426.3672     -0.537145853    
   4.91481400      0.647047520      -10.0000000       3707.73608      0.286376595    
   4.91481400      0.647047520      -9.00000000       3707.73608      0.286376595    
   5.00000000       0.00000000      -9.00000000       3707.73608      0.286376595    
   5.00000000       0.00000000      -10.0000000       3707.73608      0.286376595    
   4.91481400      0.647047520      -9.00000000       5219.90820      0.269014686    
   4.91481400      0.647047520      -8.00000000       5219.90820      0.269014686    
   5.00000000       0.00000000      -8.00000000       5219.90820      0.269014686    
   5.00000000       0.00000000      -9.00000000       5219.90820      0.269014686    
   4.91481400      0.647047520      -8.00000000       6714.06592      -5.25483340E-02
   4.91481400      0.647047520      -7.00000000       6714.06592      -5.25483340E-02
   5.00000000       0.00000000      -7.00000000       6714.06592      -5.25483340E-02
   5.00000000       0.00000000      -8.00000000       6714.06592      -5.25483340E-02
   4.91481400      0.647047520      -7.00000000       9235.19434     -0.317178041    
   4.91481400      0.647047520      -6.00000000       9235.19434     -0.317178041    
   5.00000000       0.00000000      -6.00000000       9235.19434     -0.317178041    
   5.00000000       0.00000000      -7.00000000       9235.19434     -0.317178041    
   4.91481400      0.647047520      -6.00000000       12784.5898     -0.471139252    
   4.91481400      0.647047520      -5.00000000       12784.5898     -0.471139252    
   5.00000000       0.00000000      -5.00000000       12784.5898     -0.471139252    
   5.00000000       0.00000000      -6.00000000       12784.5898     -0.471139252    
   4.91481400      0.647047520      -5.00000000       17237.1113     -0.545649111    
   4.91481400      0.647047520      -4.00000000       17237.1113     -0.545649111    
   5.00000000       0.00000000      -4.00000000       17237.1113     -0.545649111    
   5.00000000       0.00000000      -5.00000000       17237.1113     -0.545649111    
   4.91481400      0.647047520      -4.00000000       22601.7812     -0.571427166    
   4.91481400      0.647047520      -3.00000000       22601.7812     -0.571427166    
   5.00000000       0.00000000      -3.00000000       22601.7812     -0.571427166    
   5.00000000       0.00000000      -4.00000000       22601.7812     -0.571427166    
   4.91481400      0.647047520      -3.00000000       29076.6895     -0.569166422    
   4.91481400      0.647047520      -2.00000000       29076.6895     -0.569166422    
   5.00000000       0.00000000      -2.00000000       29076.6895     -0.569166422    
   5.00000000       0.00000000      -3.00000000       29076.6895     -0.569166422    
   4.91481400      0.647047520      -2.00000000       37068.5625     -0.553637326    
   4.91481400      0.647047520      -1.00000000       37068.5625     -0.553637326    
   5.00000000       0.00000000      -1.00000000       37068.5625     -0.553637326    
   5.00000000       0.00000000      -2.00000000       37068.5625     -0.553637326    
   4.91481400      0.647047520      -1.00000000       47175.0156     -0.536315024    
   4.91481400      0.647047520       0.00000000       47175.0156     -0.536315024    
   5.00000000       0.00000000       0.00000000       47175.0156     -0.536315024    
   5.00000000       0.00000000      -1.00000000       47175.0156     -0.536315024    
   4.33012676       2.50000000      -10.0000000       3343.47095      0.292378992    
   4.33012676       2.50000000      -9.00000000       3343.47095      0.292378992    
   4.57987785       1.89704800      -9.00000000       3343.47095      0.292378992    
   4.57987785       1.89704800      -10.0000000       3343.47095      0.292378992    
   4.33012676       2.50000000      -9.00000000       4702.36133      0.271402150    
   4.33012676       2.50000000      -8.00000000       4702.36133      0.271402150    
   4.57987785       1.89704800      -8.00000000       4702.36133      0.271402150    
   4.57987785       1.89704800      -9.00000000       4702.36133      0.271402150    
   4.33012676       2.50000000      -8.00000000       6044.45166      -5.26217781E-02
   4.33012676       2.50000000      -7.00000000       6044.45166      -5.26217781E-02
   4.57987785       1.89704800      -7.00000000       6044.45166      -5.26217781E-02
   4.57987785       1.89704800      -8.00000000       6044.45166      -5.26217781E-02
   4.33012676       2.50000000      -7.00000000       8318.07910     -0.318616301    
   4.33012676       2.50000000      -6.00000000       8318.07910     -0.318616301    
   4.57987785       1.89704800      -6.00000000       8318.07910     -0.318616301    
   4.57987785       1.89704800      -7.00000000       8318.07910     -0.318616301    
   4.33012676       2.50000000      -6.00000000       11520.8799     -0.473065019    
   4.33012676       2.50000000      -5.00000000       11520.8799     -0.473065019    
   4.57987785       1.89704800      -5.00000000       11520.8799     -0.473065019    
   4.57987785       1.89704800      -6.00000000       11520.8799     -0.473065019    
   4.33012676       2.50000000      -5.00000000       15537.3574     -0.547693610    
   4.33012676       2.50000000      -4.00000000       15537.3574     -0.547693610    
   4.57987785       1.89704800      -4.00000000       15537.3574     -0.547693610    
   4.57987785       1.89704800      -5.00000000       15537.3574     -0.547693610    
   4.33012676       2.50000000      -4.00000000       20374.6680     -0.573477864    
   4.33012676       2.50000000      -3.00000000       20374.6680     -0.573477864    
   4.57987785       1.89704800      -3.00000000       20374.6680     -0.573477864    
   4.57987785       1.89704800      -4.00000000       20374.6680     -0.573477864    
   4.33012676       2.50000000      -3.00000000       26210.4141     -0.571162462    
   4.33012676       2.50000000      -2.00000000       26210.4141     -0.571162462    
   4.57987785       1.89704800      -2.00000000       26210.4141     -0.571162462    
   4.57987785       1.89704800      -3.00000000       26210.4141     -0.571162462    
   4.33012676       2.50000000      -2.00000000       33411.0352     -0.555536866    
   4.33012676       2.50000000      -1.00000000       33411.0352     -0.555536866    
   4.57987785       1.89704800      -1.00000000       33411.0352     -0.555536866    
   4.57987785       1.89704800      -2.00000000       33411.0352     -0.555536866    
   4.33012676       2.50000000      -1.00000000       42513.9141     -0.538067877    
   4.33012676       2.50000000       0.00000000       42513.9141     -0.538067877    
   4.57987785       1.89704800       0.00000000       42513.9141     -0.538067877    
   4.57987785       1.89704800      -1.00000000       42513.9141     -0.538067877    
   4.57987785       1.89704800      -10.0000000       3512.87012      0.283419549    
   4.57987785       1.89704800      -9.00000000       3512.87012      0.283419549    
   4.82962894       1.29409504      -9.00000000       3512.87012      0.283419549    
   4.82962894       1.29409504      -10.0000000       3512.87012      0.283419549    
   4.57987785       1.89704800      -9.00000000       4947.95703      0.267842025    
   4.57987785       1.89704800      -8.00000000       4947.95703      0.267842025    
   4.82962894       1.29409504      -8.00000000       4947.95703      0.267842025    
   4.82962894       1.29409504      -9.00000000       4947.95703      0.267842025    
   4.57987785       1.89704800      -8.00000000       6366.28857      -5.25122769E-02
   4.57987785       1.89704800      -7.00000000       6366.28857      -5.25122769E-02
   4.82962894       1.29409504      -7.00000000       6366.28857      -5.25122769E-02
   4.82962894       1.29409504      -8.00000000       6366.28857      -5.25122769E-02
   4.57987785       1.89704800      -7.00000000       8754.78809     -0.316471070    
   4.57987785       1.89704800      -6.00000000       8754.78809     -0.316471070    
   4.82962894       1.29409504      -6.00000000       8754.78809     -0.316471070    
   4.82962894       1.29409504      -7.00000000       8754.78809     -0.316471070    
   4.57987785       1.89704800      -6.00000000       12116.5029     -0.470191687    
   4.57987785       1.89704800      -5.00000000       12116.5029     -0.470191687    
   4.82962894       1.29409504      -5.00000000       12116.5029     -0.470191687    
   4.82962894       1.29409504      -6.00000000       12116.5029     -0.470191687    
   4.57987785       1.89704800      -5.00000000       16334.2588     -0.544642866    
   4.57987785       1.89704800      -4.00000000       16334.2588     -0.544642866    
   4.82962894       1.29409504      -4.00000000       16334.2588     -0.544642866    
   4.82962894       1.29409504      -5.00000000       16334.2588     -0.544642866    
   4.57987785       1.89704800      -4.00000000       21417.0762     -0.570417166    
   4.57987785       1.89704800      -3.00000000       21417.0762     -0.570417166    
   4.82962894       1.29409504      -3.00000000       21417.0762     -0.570417166    
   4.82962894       1.29409504      -4.00000000       21417.0762     -0.570417166    
   4.57987785       1.89704800      -3.00000000       27553.1738     -0.568184137    
   4.57987785       1.89704800      -2.00000000       27553.1738     -0.568184137    
   4.82962894       1.29409504      -2.00000000       27553.1738     -0.568184137    
   4.82962894       1.29409504      -3.00000000       27553.1738     -0.568184137    
   4.57987785       1.89704800      -2.00000000       35128.0703     -0.552702427    
   4.57987785       1.89704800      -1.00000000       35128.0703     -0.552702427    
   4.82962894       1.29409504      -1.00000000       35128.0703     -0.552702427    
   4.82962894       1.29409504      -2.00000000       35128.0703     -0.552702427    
   4.57987785       1.89704800      -1.00000000       44708.7734     -0.535452485    
   4.57987785       1.89704800       0.00000000       44708.7734     -0.535452485    
   4.82962894       1.29409504       0.00000000       44708.7734     -0.535452485    
   4.82962894       1.29409504      -1.00000000       44708.7734     -0.535452485    
   3.53553391       3.53553391      -10.0000000       2809.17627      0.296481222    
   3.53553391       3.53553391      -9.00000000       2809.17627      0.296481222    
   3.93283010       3.01776695      -9.00000000       2809.17627      0.296481222    
   3.93283010       3.01776695      -10.0000000       2809.17627      0.296481222    
   3.53553391       3.53553391      -9.00000000       3948.13037      0.273035616    
   3.53553391       3.53553391      -8.00000000       3948.13037      0.273035616    
   3.93283010       3.01776695      -8.00000000       3948.13037      0.273035616    
   3.93283010       3.01776695      -9.00000000       3948.13037      0.273035616    
   3.53553391       3.53553391      -8.00000000       5072.69141      -5.26716001E-02
   3.53553391       3.53553391      -7.00000000       5072.69141      -5.26716001E-02
   3.93283010       3.01776695      -7.00000000       5072.69141      -5.26716001E-02
   3.93283010       3.01776695      -8.00000000       5072.69141      -5.26716001E-02
   3.53553391       3.53553391      -7.00000000       6983.05908     -0.319600552    
   3.53553391       3.53553391      -6.00000000       6983.05908     -0.319600552    
   3.93283010       3.01776695      -6.00000000       6983.05908     -0.319600552    
   3.93283010       3.01776695      -7.00000000       6983.05908     -0.319600552    
   3.53553391       3.53553391      -6.00000000       9675.22070     -0.474382430    
   3.53553391       3.53553391      -5.00000000       9675.22070     -0.474382430    
   3.93283010       3.01776695      -5.00000000       9675.22070     -0.474382430    
   3.93283010       3.01776695      -6.00000000       9675.22070     -0.474382430    
   3.53553391       3.53553391      -5.00000000       13050.5908     -0.549091339    
   3.53553391       3.53553391      -4.00000000       13050.5908     -0.549091339    
   3.93283010       3.01776695      -4.00000000       13050.5908     -0.549091339    
   3.93283010       3.01776695      -5.00000000       13050.5908     -0.549091339    
   3.53553391       3.53553391      -4.00000000       17114.6309     -0.574879766    
   3.53553391       3.53553391      -3.00000000       17114.6309     -0.574879766    
   3.93283010       3.01776695      -3.00000000       17114.6309     -0.574879766    
   3.93283010       3.01776695      -4.00000000       17114.6309     -0.574879766    
   3.53553391       3.53553391      -3.00000000       22015.9707     -0.572527051    
   3.53553391       3.53553391      -2.00000000       22015.9707     -0.572527051    
   3.93283010       3.01776695      -2.00000000       22015.9707     -0.572527051    
   3.93283010       3.01776695      -3.00000000       22015.9707     -0.572527051    
   3.53553391       3.53553391      -2.00000000       28062.3066     -0.556835890    
   3.53553391       3.53553391      -1.00000000       28062.3066     -0.556835890    
   3.93283010       3.01776695      -1.00000000       28062.3066     -0.556835890    
   3.93283010       3.01776695      -2.00000000       28062.3066     -0.556835890    
   3.53553391       3.53553391      -1.00000000       35704.2383     -0.539266646    
   3.53553391       3.53553391       0.00000000       35704.2383     -0.539266646    
   3.93283010       3.01776695       0.00000000       35704.2383     -0.539266646    
   3.93283010       3.01776695      -1.00000000       35704.2383     -0.539266646    
   3.93283010       3.01776695      -10.0000000       3078.64111      0.279856831    
   3.93283010       3.01776695      -9.00000000       3078.64111      0.279856831    
   4.33012676       2.50000000      -9.00000000       3078.64111      0.279856831    
   4.33012676       2.50000000      -10.0000000       3078.64111      0.279856831    
   3.93283010       3.01776695      -9.00000000       4338.81494      0.266428202    
   3.93283010       3.01776695      -8.00000000       4338.81494      0.266428202    
   4.33012676       2.50000000      -8.00000000       4338.81494      0.266428202    
   4.33012676       2.50000000      -9.00000000       4338.81494      0.266428202    
   3.93283010       3.01776695      -8.00000000       5584.65674      -5.24693951E-02
   3.93283010       3.01776695      -7.00000000       5584.65674      -5.24693951E-02
   4.33012676       2.50000000      -7.00000000       5584.65674      -5.24693951E-02
   4.33012676       2.50000000      -8.00000000       5584.65674      -5.24693951E-02
   3.93283010       3.01776695      -7.00000000       7677.75977     -0.315620840    
   3.93283010       3.01776695      -6.00000000       7677.75977     -0.315620840    
   4.33012676       2.50000000      -6.00000000       7677.75977     -0.315620840    
   4.33012676       2.50000000      -7.00000000       7677.75977     -0.315620840    
   3.93283010       3.01776695      -6.00000000       10622.7188     -0.469051242    
   3.93283010       3.01776695      -5.00000000       10622.7188     -0.469051242    
   4.33012676       2.50000000      -5.00000000       10622.7188     -0.469051242    
   4.33012676       2.50000000      -6.00000000       10622.7188     -0.469051242    
   3.93283010       3.01776695      -5.00000000       14318.2666     -0.543431401    
   3.93283010       3.01776695      -4.00000000       14318.2666     -0.543431401    
   4.33012676       2.50000000      -4.00000000       14318.2666     -0.543431401    
   4.33012676       2.50000000      -5.00000000       14318.2666     -0.543431401    
   3.93283010       3.01776695      -4.00000000       18772.8652     -0.569201469    
   3.93283010       3.01776695      -3.00000000       18772.8652     -0.569201469    
   4.33012676       2.50000000      -3.00000000       18772.8652     -0.569201469    
   4.33012676       2.50000000      -4.00000000       18772.8652     -0.569201469    
   3.93283010       3.01776695      -3.00000000       24151.9922     -0.567001045    
   3.93283010       3.01776695      -2.00000000       24151.9922     -0.567001045    
   4.33012676       2.50000000      -2.00000000       24151.9922     -0.567001045    
   4.33012676       2.50000000      -3.00000000       24151.9922     -0.567001045    
   3.93283010       3.01776695      -2.00000000       30793.7109     -0.551576793    
   3.93283010       3.01776695      -1.00000000       30793.7109     -0.551576793    
   4.33012676       2.50000000      -1.00000000       30793.7109     -0.551576793    
   4.33012676       2.50000000      -2.00000000       30793.7109     -0.551576793    
   3.93283010       3.01776695      -1.00000000       39195.7500     -0.534414470    
   3.93283010       3.01776695       0.00000000       39195.7500     -0.534414470    
   4.33012676       2.50000000       0.00000000       39195.7500     -0.534414470    
   4.33012676       2.50000000      -1.00000000       39195.7500     -0.534414470    
   2.50000000       4.33012676      -10.0000000       2083.51294      0.303062588    
   2.50000000       4.33012676      -9.00000000       2083.51294      0.303062588    
   3.01776695       3.93283010      -9.00000000       2083.51294      0.303062588    
   3.01776695       3.93283010      -10.0000000       2083.51294      0.303062588    
   2.50000000       4.33012676      -9.00000000       2924.86011      0.275662333    
   2.50000000       4.33012676      -8.00000000       2924.86011      0.275662333    
   3.01776695       3.93283010      -8.00000000       2924.86011      0.275662333    
   3.01776695       3.93283010      -9.00000000       2924.86011      0.275662333    
   2.50000000       4.33012676      -8.00000000       3755.23047      -5.27514629E-02
   2.50000000       4.33012676      -7.00000000       3755.23047      -5.27514629E-02
   3.01776695       3.93283010      -7.00000000       3755.23047      -5.27514629E-02
   3.01776695       3.93283010      -8.00000000       3755.23047      -5.27514629E-02
   2.50000000       4.33012676      -7.00000000       5172.16748     -0.321184129    
   2.50000000       4.33012676      -6.00000000       5172.16748     -0.321184129    
   3.01776695       3.93283010      -6.00000000       5172.16748     -0.321184129    
   3.01776695       3.93283010      -7.00000000       5172.16748     -0.321184129    
   2.50000000       4.33012676      -6.00000000       7170.23047     -0.476498514    
   2.50000000       4.33012676      -5.00000000       7170.23047     -0.476498514    
   3.01776695       3.93283010      -5.00000000       7170.23047     -0.476498514    
   3.01776695       3.93283010      -6.00000000       7170.23047     -0.476498514    
   2.50000000       4.33012676      -5.00000000       9674.48633     -0.551335812    
   2.50000000       4.33012676      -4.00000000       9674.48633     -0.551335812    
   3.01776695       3.93283010      -4.00000000       9674.48633     -0.551335812    
   3.01776695       3.93283010      -5.00000000       9674.48633     -0.551335812    
   2.50000000       4.33012676      -4.00000000       12688.3008     -0.577131569    
   2.50000000       4.33012676      -3.00000000       12688.3008     -0.577131569    
   3.01776695       3.93283010      -3.00000000       12688.3008     -0.577131569    
   3.01776695       3.93283010      -4.00000000       12688.3008     -0.577131569    
   2.50000000       4.33012676      -3.00000000       16321.2510     -0.574718475    
   2.50000000       4.33012676      -2.00000000       16321.2510     -0.574718475    
   3.01776695       3.93283010      -2.00000000       16321.2510     -0.574718475    
   3.01776695       3.93283010      -3.00000000       16321.2510     -0.574718475    
   2.50000000       4.33012676      -2.00000000       20801.2441     -0.558921993    
   2.50000000       4.33012676      -1.00000000       20801.2441     -0.558921993    
   3.01776695       3.93283010      -1.00000000       20801.2441     -0.558921993    
   3.01776695       3.93283010      -2.00000000       20801.2441     -0.558921993    
   2.50000000       4.33012676      -1.00000000       26461.4434     -0.541192472    
   2.50000000       4.33012676       0.00000000       26461.4434     -0.541192472    
   3.01776695       3.93283010       0.00000000       26461.4434     -0.541192472    
   3.01776695       3.93283010      -1.00000000       26461.4434     -0.541192472    
   3.01776695       3.93283010      -10.0000000       2434.66431      0.274718314    
   3.01776695       3.93283010      -9.00000000       2434.66431      0.274718314    
   3.53553391       3.53553391      -9.00000000       2434.66431      0.274718314    
   3.53553391       3.53553391      -10.0000000       2434.66431      0.274718314    
   3.01776695       3.93283010      -9.00000000       3434.00366      0.264393061    
   3.01776695       3.93283010      -8.00000000       3434.00366      0.264393061    
   3.53553391       3.53553391      -8.00000000       3434.00366      0.264393061    
   3.53553391       3.53553391      -9.00000000       3434.00366      0.264393061    
   3.01776695       3.93283010      -8.00000000       4422.43799      -5.24064191E-02
   3.01776695       3.93283010      -7.00000000       4422.43799      -5.24064191E-02
   3.53553391       3.53553391      -7.00000000       4422.43799      -5.24064191E-02
   3.53553391       3.53553391      -8.00000000       4422.43799      -5.24064191E-02
   3.01776695       3.93283010      -7.00000000       6077.52197     -0.314395040    
   3.01776695       3.93283010      -6.00000000       6077.52197     -0.314395040    
   3.53553391       3.53553391      -6.00000000       6077.52197     -0.314395040    
   3.53553391       3.53553391      -7.00000000       6077.52197     -0.314395040    
   3.01776695       3.93283010      -6.00000000       8405.03027     -0.467406929    
   3.01776695       3.93283010      -5.00000000       8405.03027     -0.467406929    
   3.53553391       3.53553391      -5.00000000       8405.03027     -0.467406929    
   3.53553391       3.53553391      -6.00000000       8405.03027     -0.467406929    
   3.01776695       3.93283010      -5.00000000       11326.5264     -0.541684330    
   3.01776695       3.93283010      -4.00000000       11326.5264     -0.541684330    
   3.53553391       3.53553391      -4.00000000       11326.5264     -0.541684330    
   3.53553391       3.53553391      -5.00000000       11326.5264     -0.541684330    
   3.01776695       3.93283010      -4.00000000       14849.3516     -0.567447007    
   3.01776695       3.93283010      -3.00000000       14849.3516     -0.567447007    
   3.53553391       3.53553391      -3.00000000       14849.3516     -0.567447007    
   3.53553391       3.53553391      -4.00000000       14849.3516     -0.567447007    
   3.01776695       3.93283010      -3.00000000       19104.9336     -0.565294683    
   3.01776695       3.93283010      -2.00000000       19104.9336     -0.565294683    
   3.53553391       3.53553391      -2.00000000       19104.9336     -0.565294683    
   3.53553391       3.53553391      -3.00000000       19104.9336     -0.565294683    
   3.01776695       3.93283010      -2.00000000       24360.8730     -0.549953282    
   3.01776695       3.93283010      -1.00000000       24360.8730     -0.549953282    
   3.53553391       3.53553391      -1.00000000       24360.8730     -0.549953282    
   3.53553391       3.53553391      -2.00000000       24360.8730     -0.549953282    
   3.01776695       3.93283010      -1.00000000       31011.6602     -0.532917321    
   3.01776695       3.93283010       0.00000000       31011.6602     -0.532917321    
   3.53553391       3.53553391       0.00000000       31011.6602     -0.532917321    
   3.53553391       3.53553391      -1.00000000       31011.6602     -0.532917321    
   1.29409504       4.82962894      -10.0000000       1216.06116      0.318263948    
   1.29409504       4.82962894      -9.00000000       1216.06116      0.318263948    
   1.89704800       4.57987785      -9.00000000       1216.06116      0.318263948    
   1.89704800       4.57987785      -10.0000000       1216.06116      0.318263948    
   1.29409504       4.82962894      -9.00000000       1702.30811      0.281753331    
   1.29409504       4.82962894      -8.00000000       1702.30811      0.281753331    
   1.89704800       4.57987785      -8.00000000       1702.30811      0.281753331    
   1.89704800       4.57987785      -9.00000000       1702.30811      0.281753331    
   1.29409504       4.82962894      -8.00000000       2181.86084      -5.29393405E-02
   1.29409504       4.82962894      -7.00000000       2181.86084      -5.29393405E-02
   1.89704800       4.57987785      -7.00000000       2181.86084      -5.29393405E-02
   1.89704800       4.57987785      -8.00000000       2181.86084      -5.29393405E-02
   1.29409504       4.82962894      -7.00000000       3008.82910     -0.324858457    
   1.29409504       4.82962894      -6.00000000       3008.82910     -0.324858457    
   1.89704800       4.57987785      -6.00000000       3008.82910     -0.324858457    
   1.89704800       4.57987785      -7.00000000       3008.82910     -0.324858457    
   1.29409504       4.82962894      -6.00000000       4176.67480     -0.481401384    
   1.29409504       4.82962894      -5.00000000       4176.67480     -0.481401384    
   1.89704800       4.57987785      -5.00000000       4176.67480     -0.481401384    
   1.89704800       4.57987785      -6.00000000       4176.67480     -0.481401384    
   1.29409504       4.82962894      -5.00000000       5639.18701     -0.556529880    
   1.29409504       4.82962894      -4.00000000       5639.18701     -0.556529880    
   1.89704800       4.57987785      -4.00000000       5639.18701     -0.556529880    
   1.89704800       4.57987785      -5.00000000       5639.18701     -0.556529880    
   1.29409504       4.82962894      -4.00000000       7397.43896     -0.582339346    
   1.29409504       4.82962894      -3.00000000       7397.43896     -0.582339346    
   1.89704800       4.57987785      -3.00000000       7397.43896     -0.582339346    