 VARIABLES="X" "Y" "Z" "abs(p) (Pa)" "angle(p) (rad)"
ZONE N=   1080,E =     600, F=FEPOINT, ET=QUADRILATERAL
   4.82962894       1.29409504      -10.0000000       670.073303       1.83570385    
   4.82962894       1.29409504      -9.00000000       670.073303       1.83570385    
   4.91481400      0.647047520      -9.00000000       670.073303       1.83570385    
   4.91481400      0.647047520      -10.0000000       670.073303       1.83570385    
   4.82962894       1.29409504      -9.00000000       811.991760       1.82489014    
   4.82962894       1.29409504      -8.00000000       811.991760       1.82489014    
   4.91481400      0.647047520      -8.00000000       811.991760       1.82489014    
   4.91481400      0.647047520      -9.00000000       811.991760       1.82489014    
   4.82962894       1.29409504      -8.00000000       1134.59705       1.77229428    
   4.82962894       1.29409504      -7.00000000       1134.59705       1.77229428    
   4.91481400      0.647047520      -7.00000000       1134.59705       1.77229428    
   4.91481400      0.647047520      -8.00000000       1134.59705       1.77229428    
   4.82962894       1.29409504      -7.00000000       1537.86365       1.73306918    
   4.82962894       1.29409504      -6.00000000       1537.86365       1.73306918    
   4.91481400      0.647047520      -6.00000000       1537.86365       1.73306918    
   4.91481400      0.647047520      -7.00000000       1537.86365       1.73306918    
   4.82962894       1.29409504      -6.00000000       1985.70312       1.70691371    
   4.82962894       1.29409504      -5.00000000       1985.70312       1.70691371    
   4.91481400      0.647047520      -5.00000000       1985.70312       1.70691371    
   4.91481400      0.647047520      -6.00000000       1985.70312       1.70691371    
   4.82962894       1.29409504      -5.00000000       2457.39478       1.68934071    
   4.82962894       1.29409504      -4.00000000       2457.39478       1.68934071    
   4.91481400      0.647047520      -4.00000000       2457.39478       1.68934071    
   4.91481400      0.647047520      -5.00000000       2457.39478       1.68934071    
   4.82962894       1.29409504      -4.00000000       2935.50952       1.67739892    
   4.82962894       1.29409504      -3.00000000       2935.50952       1.67739892    
   4.91481400      0.647047520      -3.00000000       2935.50952       1.67739892    
   4.91481400      0.647047520      -4.00000000       2935.50952       1.67739892    
   4.82962894       1.29409504      -3.00000000       3404.61548       1.66929078    
   4.82962894       1.29409504      -2.00000000       3404.61548       1.66929078    
   4.91481400      0.647047520      -2.00000000       3404.61548       1.66929078    
   4.91481400      0.647047520      -3.00000000       3404.61548       1.66929078    
   4.82962894       1.29409504      -2.00000000       3847.88696       1.66400576    
   4.82962894       1.29409504      -1.00000000       3847.88696       1.66400576    
   4.91481400      0.647047520      -1.00000000       3847.88696       1.66400576    
   4.91481400      0.647047520      -2.00000000       3847.88696       1.66400576    
   4.82962894       1.29409504      -1.00000000       4235.86963       1.66121852    
   4.82962894       1.29409504       0.00000000       4235.86963       1.66121852    
   4.91481400      0.647047520       0.00000000       4235.86963       1.66121852    
   4.91481400      0.647047520      -1.00000000       4235.86963       1.66121852    
   4.91481400      0.647047520      -10.0000000       209.773483       1.87133801    
   4.91481400      0.647047520      -9.00000000       209.773483       1.87133801    
   5.00000000       0.00000000      -9.00000000       209.773483       1.87133801    
   5.00000000       0.00000000      -10.0000000       209.773483       1.87133801    
   4.91481400      0.647047520      -9.00000000       272.968323       1.83949900    
   4.91481400      0.647047520      -8.00000000       272.968323       1.83949900    
   5.00000000       0.00000000      -8.00000000       272.968323       1.83949900    
   5.00000000       0.00000000      -9.00000000       272.968323       1.83949900    
   4.91481400      0.647047520      -8.00000000       403.555176       1.77195966    
   4.91481400      0.647047520      -7.00000000       403.555176       1.77195966    
   5.00000000       0.00000000      -7.00000000       403.555176       1.77195966    
   5.00000000       0.00000000      -8.00000000       403.555176       1.77195966    
   4.91481400      0.647047520      -7.00000000       563.238708       1.72813070    
   4.91481400      0.647047520      -6.00000000       563.238708       1.72813070    
   5.00000000       0.00000000      -6.00000000       563.238708       1.72813070    
   5.00000000       0.00000000      -7.00000000       563.238708       1.72813070    
   4.91481400      0.647047520      -6.00000000       739.063171       1.70067239    
   4.91481400      0.647047520      -5.00000000       739.063171       1.70067239    
   5.00000000       0.00000000      -5.00000000       739.063171       1.70067239    
   5.00000000       0.00000000      -6.00000000       739.063171       1.70067239    
   4.91481400      0.647047520      -5.00000000       923.333435       1.68283808    
   4.91481400      0.647047520      -4.00000000       923.333435       1.68283808    
   5.00000000       0.00000000      -4.00000000       923.333435       1.68283808    
   5.00000000       0.00000000      -5.00000000       923.333435       1.68283808    
   4.91481400      0.647047520      -4.00000000       1110.26941       1.67090142    
   4.91481400      0.647047520      -3.00000000       1110.26941       1.67090142    
   5.00000000       0.00000000      -3.00000000       1110.26941       1.67090142    
   5.00000000       0.00000000      -4.00000000       1110.26941       1.67090142    
   4.91481400      0.647047520      -3.00000000       1293.70825       1.66285729    
   4.91481400      0.647047520      -2.00000000       1293.70825       1.66285729    
   5.00000000       0.00000000      -2.00000000       1293.70825       1.66285729    
   5.00000000       0.00000000      -3.00000000       1293.70825       1.66285729    
   4.91481400      0.647047520      -2.00000000       1467.97827       1.65757263    
   4.91481400      0.647047520      -1.00000000       1467.97827       1.65757263    
   5.00000000       0.00000000      -1.00000000       1467.97827       1.65757263    
   5.00000000       0.00000000      -2.00000000       1467.97827       1.65757263    
   4.91481400      0.647047520      -1.00000000       1621.00256       1.65467703    
   4.91481400      0.647047520       0.00000000       1621.00256       1.65467703    
   5.00000000       0.00000000       0.00000000       1621.00256       1.65467703    
   5.00000000       0.00000000      -1.00000000       1621.00256       1.65467703    
   4.33012676       2.50000000      -10.0000000       1504.14075       1.84067202    
   4.33012676       2.50000000      -9.00000000       1504.14075       1.84067202    
   4.57987785       1.89704800      -9.00000000       1504.14075       1.84067202    
   4.57987785       1.89704800      -10.0000000       1504.14075       1.84067202    
   4.33012676       2.50000000      -9.00000000       1841.58997       1.82705271    
   4.33012676       2.50000000      -8.00000000       1841.58997       1.82705271    
   4.57987785       1.89704800      -8.00000000       1841.58997       1.82705271    
   4.57987785       1.89704800      -9.00000000       1841.58997       1.82705271    
   4.33012676       2.50000000      -8.00000000       2595.42285       1.77224660    
   4.33012676       2.50000000      -7.00000000       2595.42285       1.77224660    
   4.57987785       1.89704800      -7.00000000       2595.42285       1.77224660    
   4.57987785       1.89704800      -8.00000000       2595.42285       1.77224660    
   4.33012676       2.50000000      -7.00000000       3534.15454       1.73228335    
   4.33012676       2.50000000      -6.00000000       3534.15454       1.73228335    
   4.57987785       1.89704800      -6.00000000       3534.15454       1.73228335    
   4.57987785       1.89704800      -7.00000000       3534.15454       1.73228335    
   4.33012676       2.50000000      -6.00000000       4575.13574       1.70590413    
   4.33012676       2.50000000      -5.00000000       4575.13574       1.70590413    
   4.57987785       1.89704800      -5.00000000       4575.13574       1.70590413    
   4.57987785       1.89704800      -6.00000000       4575.13574       1.70590413    
   4.33012676       2.50000000      -5.00000000       5670.64062       1.68828118    
   4.33012676       2.50000000      -4.00000000       5670.64062       1.68828118    
   4.57987785       1.89704800      -4.00000000       5670.64062       1.68828118    
   4.57987785       1.89704800      -5.00000000       5670.64062       1.68828118    
   4.33012676       2.50000000      -4.00000000       6781.23486       1.67633367    
   4.33012676       2.50000000      -3.00000000       6781.23486       1.67633367    
   4.57987785       1.89704800      -3.00000000       6781.23486       1.67633367    
   4.57987785       1.89704800      -4.00000000       6781.23486       1.67633367    
   4.33012676       2.50000000      -3.00000000       7870.90527       1.66823411    
   4.33012676       2.50000000      -2.00000000       7870.90527       1.66823411    
   4.57987785       1.89704800      -2.00000000       7870.90527       1.66823411    
   4.57987785       1.89704800      -3.00000000       7870.90527       1.66823411    
   4.33012676       2.50000000      -2.00000000       8901.51758       1.66294622    
   4.33012676       2.50000000      -1.00000000       8901.51758       1.66294622    
   4.57987785       1.89704800      -1.00000000       8901.51758       1.66294622    
   4.57987785       1.89704800      -2.00000000       8901.51758       1.66294622    
   4.33012676       2.50000000      -1.00000000       9804.06055       1.66013491    
   4.33012676       2.50000000       0.00000000       9804.06055       1.66013491    
   4.57987785       1.89704800       0.00000000       9804.06055       1.66013491    
   4.57987785       1.89704800      -1.00000000       9804.06055       1.66013491    
   4.57987785       1.89704800      -10.0000000       1075.16699       1.84913647    
   4.57987785       1.89704800      -9.00000000       1075.16699       1.84913647    
   4.82962894       1.29409504      -9.00000000       1075.16699       1.84913647    
   4.82962894       1.29409504      -10.0000000       1075.16699       1.84913647    
   4.57987785       1.89704800      -9.00000000       1339.28943       1.83064234    
   4.57987785       1.89704800      -8.00000000       1339.28943       1.83064234    
   4.82962894       1.29409504      -8.00000000       1339.28943       1.83064234    
   4.82962894       1.29409504      -9.00000000       1339.28943       1.83064234    
   4.57987785       1.89704800      -8.00000000       1914.19800       1.77216887    
   4.57987785       1.89704800      -7.00000000       1914.19800       1.77216887    
   4.82962894       1.29409504      -7.00000000       1914.19800       1.77216887    
   4.82962894       1.29409504      -8.00000000       1914.19800       1.77216887    
   4.57987785       1.89704800      -7.00000000       2625.94995       1.73102403    
   4.57987785       1.89704800      -6.00000000       2625.94995       1.73102403    
   4.82962894       1.29409504      -6.00000000       2625.94995       1.73102403    
   4.82962894       1.29409504      -7.00000000       2625.94995       1.73102403    
   4.57987785       1.89704800      -6.00000000       3413.43994       1.70430040    
   4.57987785       1.89704800      -5.00000000       3413.43994       1.70430040    
   4.82962894       1.29409504      -5.00000000       3413.43994       1.70430040    
   4.82962894       1.29409504      -6.00000000       3413.43994       1.70430040    
   4.57987785       1.89704800      -5.00000000       4241.11523       1.68660569    
   4.57987785       1.89704800      -4.00000000       4241.11523       1.68660569    
   4.82962894       1.29409504      -4.00000000       4241.11523       1.68660569    
   4.82962894       1.29409504      -5.00000000       4241.11523       1.68660569    
   4.57987785       1.89704800      -4.00000000       5080.35400       1.67465281    
   4.57987785       1.89704800      -3.00000000       5080.35400       1.67465281    
   4.82962894       1.29409504      -3.00000000       5080.35400       1.67465281    
   4.82962894       1.29409504      -4.00000000       5080.35400       1.67465281    
   4.57987785       1.89704800      -3.00000000       5903.84180       1.66656780    
   4.57987785       1.89704800      -2.00000000       5903.84180       1.66656780    
   4.82962894       1.29409504      -2.00000000       5903.84180       1.66656780    
   4.82962894       1.29409504      -3.00000000       5903.84180       1.66656780    
   4.57987785       1.89704800      -2.00000000       6683.77246       1.66127682    
   4.57987785       1.89704800      -1.00000000       6683.77246       1.66127682    
   4.82962894       1.29409504      -1.00000000       6683.77246       1.66127682    
   4.82962894       1.29409504      -2.00000000       6683.77246       1.66127682    
   4.57987785       1.89704800      -1.00000000       7367.36768       1.65843737    
   4.57987785       1.89704800       0.00000000       7367.36768       1.65843737    
   4.82962894       1.29409504       0.00000000       7367.36768       1.65843737    
   4.82962894       1.29409504      -1.00000000       7367.36768       1.65843737    
   3.53553391       3.53553391      -10.0000000       2235.71216       1.84216130    
   3.53553391       3.53553391      -9.00000000       2235.71216       1.84216130    
   3.93283010       3.01776695      -9.00000000       2235.71216       1.84216130    
   3.93283010       3.01776695      -10.0000000       2235.71216       1.84216130    
   3.53553391       3.53553391      -9.00000000       2745.69043       1.82769394    
   3.53553391       3.53553391      -8.00000000       2745.69043       1.82769394    
   3.93283010       3.01776695      -8.00000000       2745.69043       1.82769394    
   3.93283010       3.01776695      -9.00000000       2745.69043       1.82769394    
   3.53553391       3.53553391      -8.00000000       3879.37939       1.77223432    
   3.53553391       3.53553391      -7.00000000       3879.37939       1.77223432    
   3.93283010       3.01776695      -7.00000000       3879.37939       1.77223432    
   3.93283010       3.01776695      -8.00000000       3879.37939       1.77223432    
   3.53553391       3.53553391      -7.00000000       5289.60010       1.73205507    
   3.53553391       3.53553391      -6.00000000       5289.60010       1.73205507    
   3.93283010       3.01776695      -6.00000000       5289.60010       1.73205507    
   3.93283010       3.01776695      -7.00000000       5289.60010       1.73205507    
   3.53553391       3.53553391      -6.00000000       6852.77637       1.70561206    
   3.53553391       3.53553391      -5.00000000       6852.77637       1.70561206    
   3.93283010       3.01776695      -5.00000000       6852.77637       1.70561206    
   3.93283010       3.01776695      -6.00000000       6852.77637       1.70561206    
   3.53553391       3.53553391      -5.00000000       8497.44434       1.68797553    
   3.53553391       3.53553391      -4.00000000       8497.44434       1.68797553    
   3.93283010       3.01776695      -4.00000000       8497.44434       1.68797553    
   3.93283010       3.01776695      -5.00000000       8497.44434       1.68797553    
   3.53553391       3.53553391      -4.00000000       10164.8203       1.67602611    
   3.53553391       3.53553391      -3.00000000       10164.8203       1.67602611    
   3.93283010       3.01776695      -3.00000000       10164.8203       1.67602611    
   3.93283010       3.01776695      -4.00000000       10164.8203       1.67602611    
   3.53553391       3.53553391      -3.00000000       11800.8027       1.66792881    
   3.53553391       3.53553391      -2.00000000       11800.8027       1.66792881    
   3.93283010       3.01776695      -2.00000000       11800.8027       1.66792881    
   3.93283010       3.01776695      -3.00000000       11800.8027       1.66792881    
   3.53553391       3.53553391      -2.00000000       13348.4961       1.66264021    
   3.53553391       3.53553391      -1.00000000       13348.4961       1.66264021    
   3.93283010       3.01776695      -1.00000000       13348.4961       1.66264021    
   3.93283010       3.01776695      -2.00000000       13348.4961       1.66264021    
   3.53553391       3.53553391      -1.00000000       14704.0850       1.65982449    
   3.53553391       3.53553391       0.00000000       14704.0850       1.65982449    
   3.93283010       3.01776695       0.00000000       14704.0850       1.65982449    
   3.93283010       3.01776695      -1.00000000       14704.0850       1.65982449    
   3.93283010       3.01776695      -10.0000000       1867.34326       1.84664273    
   3.93283010       3.01776695      -9.00000000       1867.34326       1.84664273    
   4.33012676       2.50000000      -9.00000000       1867.34326       1.84664273    
   4.33012676       2.50000000      -10.0000000       1867.34326       1.84664273    
   3.93283010       3.01776695      -9.00000000       2314.35449       1.82959783    
   3.93283010       3.01776695      -8.00000000       2314.35449       1.82959783    
   4.33012676       2.50000000      -8.00000000       2314.35449       1.82959783    
   4.33012676       2.50000000      -9.00000000       2314.35449       1.82959783    
   3.93283010       3.01776695      -8.00000000       3294.39893       1.77219188    
   3.93283010       3.01776695      -7.00000000       3294.39893       1.77219188    
   4.33012676       2.50000000      -7.00000000       3294.39893       1.77219188    
   4.33012676       2.50000000      -8.00000000       3294.39893       1.77219188    
   3.93283010       3.01776695      -7.00000000       4509.71143       1.73138320    
   3.93283010       3.01776695      -6.00000000       4509.71143       1.73138320    
   4.33012676       2.50000000      -6.00000000       4509.71143       1.73138320    
   4.33012676       2.50000000      -7.00000000       4509.71143       1.73138320    
   3.93283010       3.01776695      -6.00000000       5855.20410       1.70475948    
   3.93283010       3.01776695      -5.00000000       5855.20410       1.70475948    
   4.33012676       2.50000000      -5.00000000       5855.20410       1.70475948    
   4.33012676       2.50000000      -6.00000000       5855.20410       1.70475948    
   3.93283010       3.01776695      -5.00000000       7269.88623       1.68708348    
   3.93283010       3.01776695      -4.00000000       7269.88623       1.68708348    
   4.33012676       2.50000000      -4.00000000       7269.88623       1.68708348    
   4.33012676       2.50000000      -5.00000000       7269.88623       1.68708348    
   3.93283010       3.01776695      -4.00000000       8704.25000       1.67513120    
   3.93283010       3.01776695      -3.00000000       8704.25000       1.67513120    
   4.33012676       2.50000000      -3.00000000       8704.25000       1.67513120    
   4.33012676       2.50000000      -4.00000000       8704.25000       1.67513120    
   3.93283010       3.01776695      -3.00000000       10111.6426       1.66704202    
   3.93283010       3.01776695      -2.00000000       10111.6426       1.66704202    
   4.33012676       2.50000000      -2.00000000       10111.6426       1.66704202    
   4.33012676       2.50000000      -3.00000000       10111.6426       1.66704202    
   3.93283010       3.01776695      -2.00000000       11444.0938       1.66175258    
   3.93283010       3.01776695      -1.00000000       11444.0938       1.66175258    
   4.33012676       2.50000000      -1.00000000       11444.0938       1.66175258    
   4.33012676       2.50000000      -2.00000000       11444.0938       1.66175258    
   3.93283010       3.01776695      -1.00000000       12611.6611       1.65892076    
   3.93283010       3.01776695       0.00000000       12611.6611       1.65892076    
   4.33012676       2.50000000       0.00000000       12611.6611       1.65892076    
   4.33012676       2.50000000      -1.00000000       12611.6611       1.65892076    
   2.50000000       4.33012676      -10.0000000       2814.93066       1.84295928    
   2.50000000       4.33012676      -9.00000000       2814.93066       1.84295928    
   3.01776695       3.93283010      -9.00000000       2814.93066       1.84295928    
   3.01776695       3.93283010      -10.0000000       2814.93066       1.84295928    
   2.50000000       4.33012676      -9.00000000       3462.67749       1.82803738    
   2.50000000       4.33012676      -8.00000000       3462.67749       1.82803738    
   3.01776695       3.93283010      -8.00000000       3462.67749       1.82803738    
   3.01776695       3.93283010      -9.00000000       3462.67749       1.82803738    
   2.50000000       4.33012676      -8.00000000       4898.95752       1.77222657    
   2.50000000       4.33012676      -7.00000000       4898.95752       1.77222657    
   3.01776695       3.93283010      -7.00000000       4898.95752       1.77222657    
   3.01776695       3.93283010      -8.00000000       4898.95752       1.77222657    
   2.50000000       4.33012676      -7.00000000       6684.57422       1.73193252    
   2.50000000       4.33012676      -6.00000000       6684.57422       1.73193252    
   3.01776695       3.93283010      -6.00000000       6684.57422       1.73193252    
   3.01776695       3.93283010      -7.00000000       6684.57422       1.73193252    
   2.50000000       4.33012676      -6.00000000       8663.41406       1.70545733    
   2.50000000       4.33012676      -5.00000000       8663.41406       1.70545733    
   3.01776695       3.93283010      -5.00000000       8663.41406       1.70545733    
   3.01776695       3.93283010      -6.00000000       8663.41406       1.70545733    
   2.50000000       4.33012676      -5.00000000       10745.1523       1.68781459    
   2.50000000       4.33012676      -4.00000000       10745.1523       1.68781459    
   3.01776695       3.93283010      -4.00000000       10745.1523       1.68781459    
   3.01776695       3.93283010      -5.00000000       10745.1523       1.68781459    
   2.50000000       4.33012676      -4.00000000       12855.7002       1.67586374    
   2.50000000       4.33012676      -3.00000000       12855.7002       1.67586374    
   3.01776695       3.93283010      -3.00000000       12855.7002       1.67586374    
   3.01776695       3.93283010      -4.00000000       12855.7002       1.67586374    
   2.50000000       4.33012676      -3.00000000       14926.4893       1.66776776    
   2.50000000       4.33012676      -2.00000000       14926.4893       1.66776776    
   3.01776695       3.93283010      -2.00000000       14926.4893       1.66776776    
   3.01776695       3.93283010      -3.00000000       14926.4893       1.66776776    
   2.50000000       4.33012676      -2.00000000       16885.8145       1.66247916    
   2.50000000       4.33012676      -1.00000000       16885.8145       1.66247916    
   3.01776695       3.93283010      -1.00000000       16885.8145       1.66247916    
   3.01776695       3.93283010      -2.00000000       16885.8145       1.66247916    
   2.50000000       4.33012676      -1.00000000       18602.0703       1.65965950    
   2.50000000       4.33012676       0.00000000       18602.0703       1.65965950    
   3.01776695       3.93283010       0.00000000       18602.0703       1.65965950    
   3.01776695       3.93283010      -1.00000000       18602.0703       1.65965950    
   3.01776695       3.93283010      -10.0000000       2532.26904       1.84558237    
   3.01776695       3.93283010      -9.00000000       2532.26904       1.84558237    
   3.53553391       3.53553391      -9.00000000       2532.26904       1.84558237    
   3.53553391       3.53553391      -10.0000000       2532.26904       1.84558237    
   3.01776695       3.93283010      -9.00000000       3131.70483       1.82915294    
   3.01776695       3.93283010      -8.00000000       3131.70483       1.82915294    
   3.53553391       3.53553391      -8.00000000       3131.70483       1.82915294    
   3.53553391       3.53553391      -9.00000000       3131.70483       1.82915294    
   3.01776695       3.93283010      -8.00000000       4450.08936       1.77220106    
   3.01776695       3.93283010      -7.00000000       4450.08936       1.77220106    
   3.53553391       3.53553391      -7.00000000       4450.08936       1.77220106    
   3.53553391       3.53553391      -8.00000000       4450.08936       1.77220106    
   3.01776695       3.93283010      -7.00000000       6086.13867       1.73154056    
   3.01776695       3.93283010      -6.00000000       6086.13867       1.73154056    
   3.53553391       3.53553391      -6.00000000       6086.13867       1.73154056    
   3.53553391       3.53553391      -7.00000000       6086.13867       1.73154056    
   3.01776695       3.93283010      -6.00000000       7897.95215       1.70495665    
   3.01776695       3.93283010      -5.00000000       7897.95215       1.70495665    
   3.53553391       3.53553391      -5.00000000       7897.95215       1.70495665    
   3.53553391       3.53553391      -6.00000000       7897.95215       1.70495665    
   3.01776695       3.93283010      -5.00000000       9803.21777       1.68729162    
   3.01776695       3.93283010      -4.00000000       9803.21777       1.68729162    
   3.53553391       3.53553391      -4.00000000       9803.21777       1.68729162    
   3.53553391       3.53553391      -5.00000000       9803.21777       1.68729162    
   3.01776695       3.93283010      -4.00000000       11734.9600       1.67533982    
   3.01776695       3.93283010      -3.00000000       11734.9600       1.67533982    
   3.53553391       3.53553391      -3.00000000       11734.9600       1.67533982    
   3.53553391       3.53553391      -4.00000000       11734.9600       1.67533982    
   3.01776695       3.93283010      -3.00000000       13630.3418       1.66724801    
   3.01776695       3.93283010      -2.00000000       13630.3418       1.66724801    
   3.53553391       3.53553391      -2.00000000       13630.3418       1.66724801    
   3.53553391       3.53553391      -3.00000000       13630.3418       1.66724801    
   3.01776695       3.93283010      -2.00000000       15424.5254       1.66195810    
   3.01776695       3.93283010      -1.00000000       15424.5254       1.66195810    
   3.53553391       3.53553391      -1.00000000       15424.5254       1.66195810    
   3.53553391       3.53553391      -2.00000000       15424.5254       1.66195810    
   3.01776695       3.93283010      -1.00000000       16996.4941       1.65913069    
   3.01776695       3.93283010       0.00000000       16996.4941       1.65913069    
   3.53553391       3.53553391       0.00000000       16996.4941       1.65913069    
   3.53553391       3.53553391      -1.00000000       16996.4941       1.65913069    
   1.29409504       4.82962894      -10.0000000       3202.31519       1.84351373    
   1.29409504       4.82962894      -9.00000000       3202.31519       1.84351373    
   1.89704800       4.57987785      -9.00000000       3202.31519       1.84351373    
   1.89704800       4.57987785      -10.0000000       3202.31519       1.84351373    
   1.29409504       4.82962894      -9.00000000       3943.68896       1.82827353    
   1.29409504       4.82962894      -8.00000000       3943.68896       1.82827353    
   1.89704800       4.57987785      -8.00000000       3943.68896       1.82827353    
   1.89704800       4.57987785      -9.00000000       3943.68896       1.82827353    
   1.29409504       4.82962894      -8.00000000       5584.68213       1.77222013    
   1.29409504       4.82962894      -7.00000000       5584.68213       1.77222013    
   1.89704800       4.57987785      -7.00000000       5584.68213       1.77222013    
   1.89704800       4.57987785      -8.00000000       5584.68213       1.77222013    
   1.29409504       4.82962894      -7.00000000       7624.00244       1.73184931    
   1.29409504       4.82962894      -6.00000000       7624.00244       1.73184931    
   1.89704800       4.57987785      -6.00000000       7624.00244       1.73184931    
   1.89704800       4.57987785      -7.00000000       7624.00244       1.73184931    
   1.29409504       4.82962894      -6.00000000       9883.64941       1.70535040    
   1.29409504       4.82962894      -5.00000000       9883.64941       1.70535040    
   1.89704800       4.57987785      -5.00000000       9883.64941       1.70535040    
   1.89704800       4.57987785      -6.00000000       9883.64941       1.70535040    
   1.29409504       4.82962894      -5.00000000       12260.6074       1.68770218    
   1.29409504       4.82962894      -4.00000000       12260.6074       1.68770218    
   1.89704800       4.57987785      -4.00000000       12260.6074       1.68770218    
   1.89704800       4.57987785      -5.00000000       12260.6074       1.68770218    
   1.29409504       4.82962894      -4.00000000       14670.4727       1.67575169    
   1.29409504       4.82962894      -3.00000000       14670.4727       1.67575169    
   1.89704800       4.57987785      -3.00000000       14670.4727       1.67575169    