 VARIABLES="X" "Y" "Z" "abs(p) (Pa)" "angle(p) (rad)"
ZONE N=   1080,E =     600, F=FEPOINT, ET=QUADRILATERAL
   4.82962894       1.29409504      -10.0000000       1242.94958       1.64552569    
   4.82962894       1.29409504      -9.00000000       1242.94958       1.64552569    
   4.91481400      0.647047520      -9.00000000       1242.94958       1.64552569    
   4.91481400      0.647047520      -10.0000000       1242.94958       1.64552569    
   4.82962894       1.29409504      -9.00000000       735.311829       1.72875476    
   4.82962894       1.29409504      -8.00000000       735.311829       1.72875476    
   4.91481400      0.647047520      -8.00000000       735.311829       1.72875476    
   4.91481400      0.647047520      -9.00000000       735.311829       1.72875476    
   4.82962894       1.29409504      -8.00000000       476.193420       1.86905658    
   4.82962894       1.29409504      -7.00000000       476.193420       1.86905658    
   4.91481400      0.647047520      -7.00000000       476.193420       1.86905658    
   4.91481400      0.647047520      -8.00000000       476.193420       1.86905658    
   4.82962894       1.29409504      -7.00000000       312.787079       2.14539218    
   4.82962894       1.29409504      -6.00000000       312.787079       2.14539218    
   4.91481400      0.647047520      -6.00000000       312.787079       2.14539218    
   4.91481400      0.647047520      -7.00000000       312.787079       2.14539218    
   4.82962894       1.29409504      -6.00000000       232.199814       2.65673614    
   4.82962894       1.29409504      -5.00000000       232.199814       2.65673614    
   4.91481400      0.647047520      -5.00000000       232.199814       2.65673614    
   4.91481400      0.647047520      -6.00000000       232.199814       2.65673614    
   4.82962894       1.29409504      -5.00000000       248.160416      -3.04047418    
   4.82962894       1.29409504      -4.00000000       248.160416      -3.04047418    
   4.91481400      0.647047520      -4.00000000       248.160416      -3.04047418    
   4.91481400      0.647047520      -5.00000000       248.160416      -3.04047418    
   4.82962894       1.29409504      -4.00000000       330.077637      -2.68643665    
   4.82962894       1.29409504      -3.00000000       330.077637      -2.68643665    
   4.91481400      0.647047520      -3.00000000       330.077637      -2.68643665    
   4.91481400      0.647047520      -4.00000000       330.077637      -2.68643665    
   4.82962894       1.29409504      -3.00000000       438.667358      -2.52159572    
   4.82962894       1.29409504      -2.00000000       438.667358      -2.52159572    
   4.91481400      0.647047520      -2.00000000       438.667358      -2.52159572    
   4.91481400      0.647047520      -3.00000000       438.667358      -2.52159572    
   4.82962894       1.29409504      -2.00000000       559.248901      -2.44472647    
   4.82962894       1.29409504      -1.00000000       559.248901      -2.44472647    
   4.91481400      0.647047520      -1.00000000       559.248901      -2.44472647    
   4.91481400      0.647047520      -2.00000000       559.248901      -2.44472647    
   4.82962894       1.29409504      -1.00000000       688.839905      -2.41605377    
   4.82962894       1.29409504       0.00000000       688.839905      -2.41605377    
   4.91481400      0.647047520       0.00000000       688.839905      -2.41605377    
   4.91481400      0.647047520      -1.00000000       688.839905      -2.41605377    
   4.91481400      0.647047520      -10.0000000       1242.95020       1.64552569    
   4.91481400      0.647047520      -9.00000000       1242.95020       1.64552569    
   5.00000000       0.00000000      -9.00000000       1242.95020       1.64552569    
   5.00000000       0.00000000      -10.0000000       1242.95020       1.64552569    
   4.91481400      0.647047520      -9.00000000       735.312012       1.72875500    
   4.91481400      0.647047520      -8.00000000       735.312012       1.72875500    
   5.00000000       0.00000000      -8.00000000       735.312012       1.72875500    
   5.00000000       0.00000000      -9.00000000       735.312012       1.72875500    
   4.91481400      0.647047520      -8.00000000       476.194000       1.86905658    
   4.91481400      0.647047520      -7.00000000       476.194000       1.86905658    
   5.00000000       0.00000000      -7.00000000       476.194000       1.86905658    
   5.00000000       0.00000000      -8.00000000       476.194000       1.86905658    
   4.91481400      0.647047520      -7.00000000       312.786530       2.14539361    
   4.91481400      0.647047520      -6.00000000       312.786530       2.14539361    
   5.00000000       0.00000000      -6.00000000       312.786530       2.14539361    
   5.00000000       0.00000000      -7.00000000       312.786530       2.14539361    
   4.91481400      0.647047520      -6.00000000       232.199844       2.65673542    
   4.91481400      0.647047520      -5.00000000       232.199844       2.65673542    
   5.00000000       0.00000000      -5.00000000       232.199844       2.65673542    
   5.00000000       0.00000000      -6.00000000       232.199844       2.65673542    
   4.91481400      0.647047520      -5.00000000       248.160309      -3.04047394    
   4.91481400      0.647047520      -4.00000000       248.160309      -3.04047394    
   5.00000000       0.00000000      -4.00000000       248.160309      -3.04047394    
   5.00000000       0.00000000      -5.00000000       248.160309      -3.04047394    
   4.91481400      0.647047520      -4.00000000       330.077759      -2.68643665    
   4.91481400      0.647047520      -3.00000000       330.077759      -2.68643665    
   5.00000000       0.00000000      -3.00000000       330.077759      -2.68643665    
   5.00000000       0.00000000      -4.00000000       330.077759      -2.68643665    
   4.91481400      0.647047520      -3.00000000       438.667419      -2.52159548    
   4.91481400      0.647047520      -2.00000000       438.667419      -2.52159548    
   5.00000000       0.00000000      -2.00000000       438.667419      -2.52159548    
   5.00000000       0.00000000      -3.00000000       438.667419      -2.52159548    
   4.91481400      0.647047520      -2.00000000       559.248840      -2.44472647    
   4.91481400      0.647047520      -1.00000000       559.248840      -2.44472647    
   5.00000000       0.00000000      -1.00000000       559.248840      -2.44472647    
   5.00000000       0.00000000      -2.00000000       559.248840      -2.44472647    
   4.91481400      0.647047520      -1.00000000       688.839783      -2.41605425    
   4.91481400      0.647047520       0.00000000       688.839783      -2.41605425    
   5.00000000       0.00000000       0.00000000       688.839783      -2.41605425    
   5.00000000       0.00000000      -1.00000000       688.839783      -2.41605425    
   4.33012676       2.50000000      -10.0000000       1242.95093       1.64552557    
   4.33012676       2.50000000      -9.00000000       1242.95093       1.64552557    
   4.57987785       1.89704800      -9.00000000       1242.95093       1.64552557    
   4.57987785       1.89704800      -10.0000000       1242.95093       1.64552557    
   4.33012676       2.50000000      -9.00000000       735.311218       1.72875488    
   4.33012676       2.50000000      -8.00000000       735.311218       1.72875488    
   4.57987785       1.89704800      -8.00000000       735.311218       1.72875488    
   4.57987785       1.89704800      -9.00000000       735.311218       1.72875488    
   4.33012676       2.50000000      -8.00000000       476.193695       1.86905646    
   4.33012676       2.50000000      -7.00000000       476.193695       1.86905646    
   4.57987785       1.89704800      -7.00000000       476.193695       1.86905646    
   4.57987785       1.89704800      -8.00000000       476.193695       1.86905646    
   4.33012676       2.50000000      -7.00000000       312.786896       2.14539194    
   4.33012676       2.50000000      -6.00000000       312.786896       2.14539194    
   4.57987785       1.89704800      -6.00000000       312.786896       2.14539194    
   4.57987785       1.89704800      -7.00000000       312.786896       2.14539194    
   4.33012676       2.50000000      -6.00000000       232.199921       2.65673685    
   4.33012676       2.50000000      -5.00000000       232.199921       2.65673685    
   4.57987785       1.89704800      -5.00000000       232.199921       2.65673685    
   4.57987785       1.89704800      -6.00000000       232.199921       2.65673685    
   4.33012676       2.50000000      -5.00000000       248.160538      -3.04047418    
   4.33012676       2.50000000      -4.00000000       248.160538      -3.04047418    
   4.57987785       1.89704800      -4.00000000       248.160538      -3.04047418    
   4.57987785       1.89704800      -5.00000000       248.160538      -3.04047418    
   4.33012676       2.50000000      -4.00000000       330.077576      -2.68643689    
   4.33012676       2.50000000      -3.00000000       330.077576      -2.68643689    
   4.57987785       1.89704800      -3.00000000       330.077576      -2.68643689    
   4.57987785       1.89704800      -4.00000000       330.077576      -2.68643689    
   4.33012676       2.50000000      -3.00000000       438.667480      -2.52159619    
   4.33012676       2.50000000      -2.00000000       438.667480      -2.52159619    
   4.57987785       1.89704800      -2.00000000       438.667480      -2.52159619    
   4.57987785       1.89704800      -3.00000000       438.667480      -2.52159619    
   4.33012676       2.50000000      -2.00000000       559.249268      -2.44472694    
   4.33012676       2.50000000      -1.00000000       559.249268      -2.44472694    
   4.57987785       1.89704800      -1.00000000       559.249268      -2.44472694    
   4.57987785       1.89704800      -2.00000000       559.249268      -2.44472694    
   4.33012676       2.50000000      -1.00000000       688.839722      -2.41605353    
   4.33012676       2.50000000       0.00000000       688.839722      -2.41605353    
   4.57987785       1.89704800       0.00000000       688.839722      -2.41605353    
   4.57987785       1.89704800      -1.00000000       688.839722      -2.41605353    
   4.57987785       1.89704800      -10.0000000       1242.95044       1.64552557    
   4.57987785       1.89704800      -9.00000000       1242.95044       1.64552557    
   4.82962894       1.29409504      -9.00000000       1242.95044       1.64552557    
   4.82962894       1.29409504      -10.0000000       1242.95044       1.64552557    
   4.57987785       1.89704800      -9.00000000       735.311829       1.72875500    
   4.57987785       1.89704800      -8.00000000       735.311829       1.72875500    
   4.82962894       1.29409504      -8.00000000       735.311829       1.72875500    
   4.82962894       1.29409504      -9.00000000       735.311829       1.72875500    
   4.57987785       1.89704800      -8.00000000       476.192871       1.86905718    
   4.57987785       1.89704800      -7.00000000       476.192871       1.86905718    
   4.82962894       1.29409504      -7.00000000       476.192871       1.86905718    
   4.82962894       1.29409504      -8.00000000       476.192871       1.86905718    
   4.57987785       1.89704800      -7.00000000       312.786987       2.14539313    
   4.57987785       1.89704800      -6.00000000       312.786987       2.14539313    
   4.82962894       1.29409504      -6.00000000       312.786987       2.14539313    
   4.82962894       1.29409504      -7.00000000       312.786987       2.14539313    
   4.57987785       1.89704800      -6.00000000       232.199692       2.65673566    
   4.57987785       1.89704800      -5.00000000       232.199692       2.65673566    
   4.82962894       1.29409504      -5.00000000       232.199692       2.65673566    
   4.82962894       1.29409504      -6.00000000       232.199692       2.65673566    
   4.57987785       1.89704800      -5.00000000       248.160248      -3.04047370    
   4.57987785       1.89704800      -4.00000000       248.160248      -3.04047370    
   4.82962894       1.29409504      -4.00000000       248.160248      -3.04047370    
   4.82962894       1.29409504      -5.00000000       248.160248      -3.04047370    
   4.57987785       1.89704800      -4.00000000       330.077728      -2.68643689    
   4.57987785       1.89704800      -3.00000000       330.077728      -2.68643689    
   4.82962894       1.29409504      -3.00000000       330.077728      -2.68643689    
   4.82962894       1.29409504      -4.00000000       330.077728      -2.68643689    
   4.57987785       1.89704800      -3.00000000       438.667419      -2.52159643    
   4.57987785       1.89704800      -2.00000000       438.667419      -2.52159643    
   4.82962894       1.29409504      -2.00000000       438.667419      -2.52159643    
   4.82962894       1.29409504      -3.00000000       438.667419      -2.52159643    
   4.57987785       1.89704800      -2.00000000       559.248840      -2.44472671    
   4.57987785       1.89704800      -1.00000000       559.248840      -2.44472671    
   4.82962894       1.29409504      -1.00000000       559.248840      -2.44472671    
   4.82962894       1.29409504      -2.00000000       559.248840      -2.44472671    
   4.57987785       1.89704800      -1.00000000       688.839539      -2.41605353    
   4.57987785       1.89704800       0.00000000       688.839539      -2.41605353    
   4.82962894       1.29409504       0.00000000       688.839539      -2.41605353    
   4.82962894       1.29409504      -1.00000000       688.839539      -2.41605353    
   3.53553391       3.53553391      -10.0000000       1242.94983       1.64552569    
   3.53553391       3.53553391      -9.00000000       1242.94983       1.64552569    
   3.93283010       3.01776695      -9.00000000       1242.94983       1.64552569    
   3.93283010       3.01776695      -10.0000000       1242.94983       1.64552569    
   3.53553391       3.53553391      -9.00000000       735.312622       1.72875476    
   3.53553391       3.53553391      -8.00000000       735.312622       1.72875476    
   3.93283010       3.01776695      -8.00000000       735.312622       1.72875476    
   3.93283010       3.01776695      -9.00000000       735.312622       1.72875476    
   3.53553391       3.53553391      -8.00000000       476.193726       1.86905682    
   3.53553391       3.53553391      -7.00000000       476.193726       1.86905682    
   3.93283010       3.01776695      -7.00000000       476.193726       1.86905682    
   3.93283010       3.01776695      -8.00000000       476.193726       1.86905682    
   3.53553391       3.53553391      -7.00000000       312.786682       2.14539170    
   3.53553391       3.53553391      -6.00000000       312.786682       2.14539170    
   3.93283010       3.01776695      -6.00000000       312.786682       2.14539170    
   3.93283010       3.01776695      -7.00000000       312.786682       2.14539170    
   3.53553391       3.53553391      -6.00000000       232.199768       2.65673518    
   3.53553391       3.53553391      -5.00000000       232.199768       2.65673518    
   3.93283010       3.01776695      -5.00000000       232.199768       2.65673518    
   3.93283010       3.01776695      -6.00000000       232.199768       2.65673518    
   3.53553391       3.53553391      -5.00000000       248.160446      -3.04047394    
   3.53553391       3.53553391      -4.00000000       248.160446      -3.04047394    
   3.93283010       3.01776695      -4.00000000       248.160446      -3.04047394    
   3.93283010       3.01776695      -5.00000000       248.160446      -3.04047394    
   3.53553391       3.53553391      -4.00000000       330.077332      -2.68643618    
   3.53553391       3.53553391      -3.00000000       330.077332      -2.68643618    
   3.93283010       3.01776695      -3.00000000       330.077332      -2.68643618    
   3.93283010       3.01776695      -4.00000000       330.077332      -2.68643618    
   3.53553391       3.53553391      -3.00000000       438.667145      -2.52159548    
   3.53553391       3.53553391      -2.00000000       438.667145      -2.52159548    
   3.93283010       3.01776695      -2.00000000       438.667145      -2.52159548    
   3.93283010       3.01776695      -3.00000000       438.667145      -2.52159548    
   3.53553391       3.53553391      -2.00000000       559.248474      -2.44472623    
   3.53553391       3.53553391      -1.00000000       559.248474      -2.44472623    
   3.93283010       3.01776695      -1.00000000       559.248474      -2.44472623    
   3.93283010       3.01776695      -2.00000000       559.248474      -2.44472623    
   3.53553391       3.53553391      -1.00000000       688.839233      -2.41605330    
   3.53553391       3.53553391       0.00000000       688.839233      -2.41605330    
   3.93283010       3.01776695       0.00000000       688.839233      -2.41605330    
   3.93283010       3.01776695      -1.00000000       688.839233      -2.41605330    
   3.93283010       3.01776695      -10.0000000       1242.95007       1.64552569    
   3.93283010       3.01776695      -9.00000000       1242.95007       1.64552569    
   4.33012676       2.50000000      -9.00000000       1242.95007       1.64552569    
   4.33012676       2.50000000      -10.0000000       1242.95007       1.64552569    
   3.93283010       3.01776695      -9.00000000       735.312073       1.72875488    
   3.93283010       3.01776695      -8.00000000       735.312073       1.72875488    
   4.33012676       2.50000000      -8.00000000       735.312073       1.72875488    
   4.33012676       2.50000000      -9.00000000       735.312073       1.72875488    
   3.93283010       3.01776695      -8.00000000       476.193024       1.86905742    
   3.93283010       3.01776695      -7.00000000       476.193024       1.86905742    
   4.33012676       2.50000000      -7.00000000       476.193024       1.86905742    
   4.33012676       2.50000000      -8.00000000       476.193024       1.86905742    
   3.93283010       3.01776695      -7.00000000       312.787018       2.14539313    
   3.93283010       3.01776695      -6.00000000       312.787018       2.14539313    
   4.33012676       2.50000000      -6.00000000       312.787018       2.14539313    
   4.33012676       2.50000000      -7.00000000       312.787018       2.14539313    
   3.93283010       3.01776695      -6.00000000       232.199905       2.65673494    
   3.93283010       3.01776695      -5.00000000       232.199905       2.65673494    
   4.33012676       2.50000000      -5.00000000       232.199905       2.65673494    
   4.33012676       2.50000000      -6.00000000       232.199905       2.65673494    
   3.93283010       3.01776695      -5.00000000       248.160202      -3.04047346    
   3.93283010       3.01776695      -4.00000000       248.160202      -3.04047346    
   4.33012676       2.50000000      -4.00000000       248.160202      -3.04047346    
   4.33012676       2.50000000      -5.00000000       248.160202      -3.04047346    
   3.93283010       3.01776695      -4.00000000       330.077576      -2.68643665    
   3.93283010       3.01776695      -3.00000000       330.077576      -2.68643665    
   4.33012676       2.50000000      -3.00000000       330.077576      -2.68643665    
   4.33012676       2.50000000      -4.00000000       330.077576      -2.68643665    
   3.93283010       3.01776695      -3.00000000       438.667450      -2.52159643    
   3.93283010       3.01776695      -2.00000000       438.667450      -2.52159643    
   4.33012676       2.50000000      -2.00000000       438.667450      -2.52159643    
   4.33012676       2.50000000      -3.00000000       438.667450      -2.52159643    
   3.93283010       3.01776695      -2.00000000       559.249146      -2.44472694    
   3.93283010       3.01776695      -1.00000000       559.249146      -2.44472694    
   4.33012676       2.50000000      -1.00000000       559.249146      -2.44472694    
   4.33012676       2.50000000      -2.00000000       559.249146      -2.44472694    
   3.93283010       3.01776695      -1.00000000       688.839539      -2.41605353    
   3.93283010       3.01776695       0.00000000       688.839539      -2.41605353    
   4.33012676       2.50000000       0.00000000       688.839539      -2.41605353    
   4.33012676       2.50000000      -1.00000000       688.839539      -2.41605353    
   2.50000000       4.33012676      -10.0000000       1242.95007       1.64552569    
   2.50000000       4.33012676      -9.00000000       1242.95007       1.64552569    
   3.01776695       3.93283010      -9.00000000       1242.95007       1.64552569    
   3.01776695       3.93283010      -10.0000000       1242.95007       1.64552569    
   2.50000000       4.33012676      -9.00000000       735.311829       1.72875488    
   2.50000000       4.33012676      -8.00000000       735.311829       1.72875488    
   3.01776695       3.93283010      -8.00000000       735.311829       1.72875488    
   3.01776695       3.93283010      -9.00000000       735.311829       1.72875488    
   2.50000000       4.33012676      -8.00000000       476.193207       1.86905730    
   2.50000000       4.33012676      -7.00000000       476.193207       1.86905730    
   3.01776695       3.93283010      -7.00000000       476.193207       1.86905730    
   3.01776695       3.93283010      -8.00000000       476.193207       1.86905730    
   2.50000000       4.33012676      -7.00000000       312.786621       2.14539242    
   2.50000000       4.33012676      -6.00000000       312.786621       2.14539242    
   3.01776695       3.93283010      -6.00000000       312.786621       2.14539242    
   3.01776695       3.93283010      -7.00000000       312.786621       2.14539242    
   2.50000000       4.33012676      -6.00000000       232.199600       2.65673685    
   2.50000000       4.33012676      -5.00000000       232.199600       2.65673685    
   3.01776695       3.93283010      -5.00000000       232.199600       2.65673685    
   3.01776695       3.93283010      -6.00000000       232.199600       2.65673685    
   2.50000000       4.33012676      -5.00000000       248.160172      -3.04047346    
   2.50000000       4.33012676      -4.00000000       248.160172      -3.04047346    
   3.01776695       3.93283010      -4.00000000       248.160172      -3.04047346    
   3.01776695       3.93283010      -5.00000000       248.160172      -3.04047346    
   2.50000000       4.33012676      -4.00000000       330.077301      -2.68643594    
   2.50000000       4.33012676      -3.00000000       330.077301      -2.68643594    
   3.01776695       3.93283010      -3.00000000       330.077301      -2.68643594    
   3.01776695       3.93283010      -4.00000000       330.077301      -2.68643594    
   2.50000000       4.33012676      -3.00000000       438.667480      -2.52159619    
   2.50000000       4.33012676      -2.00000000       438.667480      -2.52159619    
   3.01776695       3.93283010      -2.00000000       438.667480      -2.52159619    
   3.01776695       3.93283010      -3.00000000       438.667480      -2.52159619    
   2.50000000       4.33012676      -2.00000000       559.248840      -2.44472623    
   2.50000000       4.33012676      -1.00000000       559.248840      -2.44472623    
   3.01776695       3.93283010      -1.00000000       559.248840      -2.44472623    
   3.01776695       3.93283010      -2.00000000       559.248840      -2.44472623    
   2.50000000       4.33012676      -1.00000000       688.839294      -2.41605306    
   2.50000000       4.33012676       0.00000000       688.839294      -2.41605306    
   3.01776695       3.93283010       0.00000000       688.839294      -2.41605306    
   3.01776695       3.93283010      -1.00000000       688.839294      -2.41605306    
   3.01776695       3.93283010      -10.0000000       1242.95007       1.64552569    
   3.01776695       3.93283010      -9.00000000       1242.95007       1.64552569    
   3.53553391       3.53553391      -9.00000000       1242.95007       1.64552569    
   3.53553391       3.53553391      -10.0000000       1242.95007       1.64552569    
   3.01776695       3.93283010      -9.00000000       735.311768       1.72875488    
   3.01776695       3.93283010      -8.00000000       735.311768       1.72875488    
   3.53553391       3.53553391      -8.00000000       735.311768       1.72875488    
   3.53553391       3.53553391      -9.00000000       735.311768       1.72875488    
   3.01776695       3.93283010      -8.00000000       476.192719       1.86905754    
   3.01776695       3.93283010      -7.00000000       476.192719       1.86905754    
   3.53553391       3.53553391      -7.00000000       476.192719       1.86905754    
   3.53553391       3.53553391      -8.00000000       476.192719       1.86905754    
   3.01776695       3.93283010      -7.00000000       312.787109       2.14539266    
   3.01776695       3.93283010      -6.00000000       312.787109       2.14539266    
   3.53553391       3.53553391      -6.00000000       312.787109       2.14539266    
   3.53553391       3.53553391      -7.00000000       312.787109       2.14539266    
   3.01776695       3.93283010      -6.00000000       232.199875       2.65673470    
   3.01776695       3.93283010      -5.00000000       232.199875       2.65673470    
   3.53553391       3.53553391      -5.00000000       232.199875       2.65673470    
   3.53553391       3.53553391      -6.00000000       232.199875       2.65673470    
   3.01776695       3.93283010      -5.00000000       248.159912      -3.04047394    
   3.01776695       3.93283010      -4.00000000       248.159912      -3.04047394    
   3.53553391       3.53553391      -4.00000000       248.159912      -3.04047394    
   3.53553391       3.53553391      -5.00000000       248.159912      -3.04047394    
   3.01776695       3.93283010      -4.00000000       330.077576      -2.68643641    
   3.01776695       3.93283010      -3.00000000       330.077576      -2.68643641    
   3.53553391       3.53553391      -3.00000000       330.077576      -2.68643641    
   3.53553391       3.53553391      -4.00000000       330.077576      -2.68643641    
   3.01776695       3.93283010      -3.00000000       438.667542      -2.52159643    
   3.01776695       3.93283010      -2.00000000       438.667542      -2.52159643    
   3.53553391       3.53553391      -2.00000000       438.667542      -2.52159643    
   3.53553391       3.53553391      -3.00000000       438.667542      -2.52159643    
   3.01776695       3.93283010      -2.00000000       559.248840      -2.44472647    
   3.01776695       3.93283010      -1.00000000       559.248840      -2.44472647    
   3.53553391       3.53553391      -1.00000000       559.248840      -2.44472647    
   3.53553391       3.53553391      -2.00000000       559.248840      -2.44472647    
   3.01776695       3.93283010      -1.00000000       688.839355      -2.41605258    
   3.01776695       3.93283010       0.00000000       688.839355      -2.41605258    
   3.53553391       3.53553391       0.00000000       688.839355      -2.41605258    
   3.53553391       3.53553391      -1.00000000       688.839355      -2.41605258    
   1.29409504       4.82962894      -10.0000000       1242.94983       1.64552569    
   1.29409504       4.82962894      -9.00000000       1242.94983       1.64552569    
   1.89704800       4.57987785      -9.00000000       1242.94983       1.64552569    
   1.89704800       4.57987785      -10.0000000       1242.94983       1.64552569    
   1.29409504       4.82962894      -9.00000000       735.311829       1.72875488    
   1.29409504       4.82962894      -8.00000000       735.311829       1.72875488    
   1.89704800       4.57987785      -8.00000000       735.311829       1.72875488    
   1.89704800       4.57987785      -9.00000000       735.311829       1.72875488    
   1.29409504       4.82962894      -8.00000000       476.193115       1.86905706    
   1.29409504       4.82962894      -7.00000000       476.193115       1.86905706    
   1.89704800       4.57987785      -7.00000000       476.193115       1.86905706    
   1.89704800       4.57987785      -8.00000000       476.193115       1.86905706    
   1.29409504       4.82962894      -7.00000000       312.787170       2.14539242    
   1.29409504       4.82962894      -6.00000000       312.787170       2.14539242    
   1.89704800       4.57987785      -6.00000000       312.787170       2.14539242    
   1.89704800       4.57987785      -7.00000000       312.787170       2.14539242    
   1.29409504       4.82962894      -6.00000000       232.199799       2.65673685    
   1.29409504       4.82962894      -5.00000000       232.199799       2.65673685    
   1.89704800       4.57987785      -5.00000000       232.199799       2.65673685    
   1.89704800       4.57987785      -6.00000000       232.199799       2.65673685    
   1.29409504       4.82962894      -5.00000000       248.160156      -3.04047394    
   1.29409504       4.82962894      -4.00000000       248.160156      -3.04047394    
   1.89704800       4.57987785      -4.00000000       248.160156      -3.04047394    
   1.89704800       4.57987785      -5.00000000       248.160156      -3.04047394    
   1.29409504       4.82962894      -4.00000000       330.077423      -2.68643641    
   1.29409504       4.82962894      -3.00000000       330.077423      -2.68643641    
   1.89704800       4.57987785      -3.00000000       330.077423      -2.68643641    