 VARIABLES="X" "Y" "Z" "abs(p) (Pa)" "angle(p) (rad)"
ZONE N=   1080,E =     600, F=FEPOINT, ET=QUADRILATERAL
   4.82962894       1.29409504      -10.0000000       4416.13818       9.09547731E-02
   4.82962894       1.29409504      -9.00000000       4416.13818       9.09547731E-02
   4.91481400      0.647047520      -9.00000000       4416.13818       9.09547731E-02
   4.91481400      0.647047520      -10.0000000       4416.13818       9.09547731E-02
   4.82962894       1.29409504      -9.00000000       6006.01953       6.53128102E-02
   4.82962894       1.29409504      -8.00000000       6006.01953       6.53128102E-02
   4.91481400      0.647047520      -8.00000000       6006.01953       6.53128102E-02
   4.91481400      0.647047520      -9.00000000       6006.01953       6.53128102E-02
   4.82962894       1.29409504      -8.00000000       7875.87061     -0.201954588    
   4.82962894       1.29409504      -7.00000000       7875.87061     -0.201954588    
   4.91481400      0.647047520      -7.00000000       7875.87061     -0.201954588    
   4.91481400      0.647047520      -8.00000000       7875.87061     -0.201954588    
   4.82962894       1.29409504      -7.00000000       10686.9834     -0.420119524    
   4.82962894       1.29409504      -6.00000000       10686.9834     -0.420119524    
   4.91481400      0.647047520      -6.00000000       10686.9834     -0.420119524    
   4.91481400      0.647047520      -7.00000000       10686.9834     -0.420119524    
   4.82962894       1.29409504      -6.00000000       14407.6094     -0.555999637    
   4.82962894       1.29409504      -5.00000000       14407.6094     -0.555999637    
   4.91481400      0.647047520      -5.00000000       14407.6094     -0.555999637    
   4.91481400      0.647047520      -6.00000000       14407.6094     -0.555999637    
   4.82962894       1.29409504      -5.00000000       18924.9648     -0.631055832    
   4.82962894       1.29409504      -4.00000000       18924.9648     -0.631055832    
   4.91481400      0.647047520      -4.00000000       18924.9648     -0.631055832    
   4.91481400      0.647047520      -5.00000000       18924.9648     -0.631055832    
   4.82962894       1.29409504      -4.00000000       24232.2988     -0.667465687    
   4.82962894       1.29409504      -3.00000000       24232.2988     -0.667465687    
   4.91481400      0.647047520      -3.00000000       24232.2988     -0.667465687    
   4.91481400      0.647047520      -4.00000000       24232.2988     -0.667465687    
   4.82962894       1.29409504      -3.00000000       30424.8047     -0.679553807    
   4.82962894       1.29409504      -2.00000000       30424.8047     -0.679553807    
   4.91481400      0.647047520      -2.00000000       30424.8047     -0.679553807    
   4.91481400      0.647047520      -3.00000000       30424.8047     -0.679553807    
   4.82962894       1.29409504      -2.00000000       37737.1562     -0.677750766    
   4.82962894       1.29409504      -1.00000000       37737.1562     -0.677750766    
   4.91481400      0.647047520      -1.00000000       37737.1562     -0.677750766    
   4.91481400      0.647047520      -2.00000000       37737.1562     -0.677750766    
   4.82962894       1.29409504      -1.00000000       46555.1680     -0.670556068    
   4.82962894       1.29409504       0.00000000       46555.1680     -0.670556068    
   4.91481400      0.647047520       0.00000000       46555.1680     -0.670556068    
   4.91481400      0.647047520      -1.00000000       46555.1680     -0.670556068    
   4.91481400      0.647047520      -10.0000000       4488.90527       8.86921361E-02
   4.91481400      0.647047520      -9.00000000       4488.90527       8.86921361E-02
   5.00000000       0.00000000      -9.00000000       4488.90527       8.86921361E-02
   5.00000000       0.00000000      -10.0000000       4488.90527       8.86921361E-02
   4.91481400      0.647047520      -9.00000000       6105.52881       6.43860698E-02
   4.91481400      0.647047520      -8.00000000       6105.52881       6.43860698E-02
   5.00000000       0.00000000      -8.00000000       6105.52881       6.43860698E-02
   5.00000000       0.00000000      -9.00000000       6105.52881       6.43860698E-02
   4.91481400      0.647047520      -8.00000000       8006.76709     -0.201927692    
   4.91481400      0.647047520      -7.00000000       8006.76709     -0.201927692    
   5.00000000       0.00000000      -7.00000000       8006.76709     -0.201927692    
   5.00000000       0.00000000      -8.00000000       8006.76709     -0.201927692    
   4.91481400      0.647047520      -7.00000000       10862.1396     -0.419602811    
   4.91481400      0.647047520      -6.00000000       10862.1396     -0.419602811    
   5.00000000       0.00000000      -6.00000000       10862.1396     -0.419602811    
   5.00000000       0.00000000      -7.00000000       10862.1396     -0.419602811    
   4.91481400      0.647047520      -6.00000000       14640.7021     -0.555295050    
   4.91481400      0.647047520      -5.00000000       14640.7021     -0.555295050    
   5.00000000       0.00000000      -5.00000000       14640.7021     -0.555295050    
   5.00000000       0.00000000      -6.00000000       14640.7021     -0.555295050    
   4.91481400      0.647047520      -5.00000000       19228.8652     -0.630294442    
   4.91481400      0.647047520      -4.00000000       19228.8652     -0.630294442    
   5.00000000       0.00000000      -4.00000000       19228.8652     -0.630294442    
   5.00000000       0.00000000      -5.00000000       19228.8652     -0.630294442    
   4.91481400      0.647047520      -4.00000000       24620.0938     -0.666692734    
   4.91481400      0.647047520      -3.00000000       24620.0938     -0.666692734    
   5.00000000       0.00000000      -3.00000000       24620.0938     -0.666692734    
   5.00000000       0.00000000      -4.00000000       24620.0938     -0.666692734    
   4.91481400      0.647047520      -3.00000000       30911.5098     -0.678792179    
   4.91481400      0.647047520      -2.00000000       30911.5098     -0.678792179    
   5.00000000       0.00000000      -2.00000000       30911.5098     -0.678792179    
   5.00000000       0.00000000      -3.00000000       30911.5098     -0.678792179    
   4.91481400      0.647047520      -2.00000000       38341.6211     -0.677012503    
   4.91481400      0.647047520      -1.00000000       38341.6211     -0.677012503    
   5.00000000       0.00000000      -1.00000000       38341.6211     -0.677012503    
   5.00000000       0.00000000      -2.00000000       38341.6211     -0.677012503    
   4.91481400      0.647047520      -1.00000000       47303.1523     -0.669857502    
   4.91481400      0.647047520       0.00000000       47303.1523     -0.669857502    
   5.00000000       0.00000000       0.00000000       47303.1523     -0.669857502    
   5.00000000       0.00000000      -1.00000000       47303.1523     -0.669857502    
   4.33012676       2.50000000      -10.0000000       4042.43896       9.34676751E-02
   4.33012676       2.50000000      -9.00000000       4042.43896       9.34676751E-02
   4.57987785       1.89704800      -9.00000000       4042.43896       9.34676751E-02
   4.57987785       1.89704800      -10.0000000       4042.43896       9.34676751E-02
   4.33012676       2.50000000      -9.00000000       5497.20947       6.63435683E-02
   4.33012676       2.50000000      -8.00000000       5497.20947       6.63435683E-02
   4.57987785       1.89704800      -8.00000000       5497.20947       6.63435683E-02
   4.57987785       1.89704800      -9.00000000       5497.20947       6.63435683E-02
   4.33012676       2.50000000      -8.00000000       7208.24463     -0.201984286    
   4.33012676       2.50000000      -7.00000000       7208.24463     -0.201984286    
   4.57987785       1.89704800      -7.00000000       7208.24463     -0.201984286    
   4.57987785       1.89704800      -8.00000000       7208.24463     -0.201984286    
   4.33012676       2.50000000      -7.00000000       9783.53418     -0.420693159    
   4.33012676       2.50000000      -6.00000000       9783.53418     -0.420693159    
   4.57987785       1.89704800      -6.00000000       9783.53418     -0.420693159    
   4.57987785       1.89704800      -7.00000000       9783.53418     -0.420693159    
   4.33012676       2.50000000      -6.00000000       13192.6650     -0.556782186    
   4.33012676       2.50000000      -5.00000000       13192.6650     -0.556782186    
   4.57987785       1.89704800      -5.00000000       13192.6650     -0.556782186    
   4.57987785       1.89704800      -6.00000000       13192.6650     -0.556782186    
   4.33012676       2.50000000      -5.00000000       17331.3770     -0.631900489    
   4.33012676       2.50000000      -4.00000000       17331.3770     -0.631900489    
   4.57987785       1.89704800      -4.00000000       17331.3770     -0.631900489    
   4.57987785       1.89704800      -5.00000000       17331.3770     -0.631900489    
   4.33012676       2.50000000      -4.00000000       22193.1484     -0.668323278    
   4.33012676       2.50000000      -3.00000000       22193.1484     -0.668323278    
   4.57987785       1.89704800      -3.00000000       22193.1484     -0.668323278    
   4.57987785       1.89704800      -4.00000000       22193.1484     -0.668323278    
   4.33012676       2.50000000      -3.00000000       27864.7266     -0.680398881    
   4.33012676       2.50000000      -2.00000000       27864.7266     -0.680398881    
   4.57987785       1.89704800      -2.00000000       27864.7266     -0.680398881    
   4.57987785       1.89704800      -3.00000000       27864.7266     -0.680398881    
   4.33012676       2.50000000      -2.00000000       34560.9805     -0.678570509    
   4.33012676       2.50000000      -1.00000000       34560.9805     -0.678570509    
   4.57987785       1.89704800      -1.00000000       34560.9805     -0.678570509    
   4.57987785       1.89704800      -2.00000000       34560.9805     -0.678570509    
   4.33012676       2.50000000      -1.00000000       42634.5430     -0.671331763    
   4.33012676       2.50000000       0.00000000       42634.5430     -0.671331763    
   4.57987785       1.89704800       0.00000000       42634.5430     -0.671331763    
   4.57987785       1.89704800      -1.00000000       42634.5430     -0.671331763    
   4.57987785       1.89704800      -10.0000000       4255.79150       8.63433927E-02
   4.57987785       1.89704800      -9.00000000       4255.79150       8.63433927E-02
   4.82962894       1.29409504      -9.00000000       4255.79150       8.63433927E-02
   4.82962894       1.29409504      -10.0000000       4255.79150       8.63433927E-02
   4.57987785       1.89704800      -9.00000000       5788.96289       6.34244159E-02
   4.57987785       1.89704800      -8.00000000       5788.96289       6.34244159E-02
   4.82962894       1.29409504      -8.00000000       5788.96289       6.34244159E-02
   4.82962894       1.29409504      -9.00000000       5788.96289       6.34244159E-02
   4.57987785       1.89704800      -8.00000000       7592.02148     -0.201899678    
   4.57987785       1.89704800      -7.00000000       7592.02148     -0.201899678    
   4.82962894       1.29409504      -7.00000000       7592.02148     -0.201899678    
   4.82962894       1.29409504      -8.00000000       7592.02148     -0.201899678    
   4.57987785       1.89704800      -7.00000000       10297.0547     -0.419066936    
   4.57987785       1.89704800      -6.00000000       10297.0547     -0.419066936    
   4.82962894       1.29409504      -6.00000000       10297.0547     -0.419066936    
   4.82962894       1.29409504      -7.00000000       10297.0547     -0.419066936    
   4.57987785       1.89704800      -6.00000000       13876.0635     -0.554563284    
   4.57987785       1.89704800      -5.00000000       13876.0635     -0.554563284    
   4.82962894       1.29409504      -5.00000000       13876.0635     -0.554563284    
   4.82962894       1.29409504      -6.00000000       13876.0635     -0.554563284    
   4.57987785       1.89704800      -5.00000000       18222.3574     -0.629504085    
   4.57987785       1.89704800      -4.00000000       18222.3574     -0.629504085    
   4.82962894       1.29409504      -4.00000000       18222.3574     -0.629504085    
   4.82962894       1.29409504      -5.00000000       18222.3574     -0.629504085    
   4.57987785       1.89704800      -4.00000000       23330.0840     -0.665890038    
   4.57987785       1.89704800      -3.00000000       23330.0840     -0.665890038    
   4.82962894       1.29409504      -3.00000000       23330.0840     -0.665890038    
   4.82962894       1.29409504      -4.00000000       23330.0840     -0.665890038    
   4.57987785       1.89704800      -3.00000000       29291.6641     -0.678001046    
   4.57987785       1.89704800      -2.00000000       29291.6641     -0.678001046    
   4.82962894       1.29409504      -2.00000000       29291.6641     -0.678001046    
   4.82962894       1.29409504      -3.00000000       29291.6641     -0.678001046    
   4.57987785       1.89704800      -2.00000000       36333.2148     -0.676245272    
   4.57987785       1.89704800      -1.00000000       36333.2148     -0.676245272    
   4.82962894       1.29409504      -1.00000000       36333.2148     -0.676245272    
   4.82962894       1.29409504      -2.00000000       36333.2148     -0.676245272    
   4.57987785       1.89704800      -1.00000000       44827.5312     -0.669131398    
   4.57987785       1.89704800       0.00000000       44827.5312     -0.669131398    
   4.82962894       1.29409504       0.00000000       44827.5312     -0.669131398    
   4.82962894       1.29409504      -1.00000000       44827.5312     -0.669131398    
   3.53553391       3.53553391      -10.0000000       3393.28906       9.67401639E-02
   3.53553391       3.53553391      -9.00000000       3393.28906       9.67401639E-02
   3.93283010       3.01776695      -9.00000000       3393.28906       9.67401639E-02
   3.93283010       3.01776695      -10.0000000       3393.28906       9.67401639E-02
   3.53553391       3.53553391      -9.00000000       4613.78564       6.76836371E-02
   3.53553391       3.53553391      -8.00000000       4613.78564       6.76836371E-02
   3.93283010       3.01776695      -8.00000000       4613.78564       6.76836371E-02
   3.93283010       3.01776695      -9.00000000       4613.78564       6.76836371E-02
   3.53553391       3.53553391      -8.00000000       6049.38623     -0.202023551    
   3.53553391       3.53553391      -7.00000000       6049.38623     -0.202023551    
   3.93283010       3.01776695      -7.00000000       6049.38623     -0.202023551    
   3.93283010       3.01776695      -8.00000000       6049.38623     -0.202023551    
   3.53553391       3.53553391      -7.00000000       8213.35547     -0.421439290    
   3.53553391       3.53553391      -6.00000000       8213.35547     -0.421439290    
   3.93283010       3.01776695      -6.00000000       8213.35547     -0.421439290    
   3.93283010       3.01776695      -7.00000000       8213.35547     -0.421439290    
   3.53553391       3.53553391      -6.00000000       11078.6777     -0.557799578    
   3.53553391       3.53553391      -5.00000000       11078.6777     -0.557799578    
   3.93283010       3.01776695      -5.00000000       11078.6777     -0.557799578    
   3.93283010       3.01776695      -6.00000000       11078.6777     -0.557799578    
   3.53553391       3.53553391      -5.00000000       14556.7031     -0.632998466    
   3.53553391       3.53553391      -4.00000000       14556.7031     -0.632998466    
   3.93283010       3.01776695      -4.00000000       14556.7031     -0.632998466    
   3.93283010       3.01776695      -5.00000000       14556.7031     -0.632998466    
   3.53553391       3.53553391      -4.00000000       18641.5820     -0.669438303    
   3.53553391       3.53553391      -3.00000000       18641.5820     -0.669438303    
   3.93283010       3.01776695      -3.00000000       18641.5820     -0.669438303    
   3.93283010       3.01776695      -4.00000000       18641.5820     -0.669438303    
   3.53553391       3.53553391      -3.00000000       23405.7324     -0.681498170    
   3.53553391       3.53553391      -2.00000000       23405.7324     -0.681498170    
   3.93283010       3.01776695      -2.00000000       23405.7324     -0.681498170    
   3.93283010       3.01776695      -3.00000000       23405.7324     -0.681498170    
   3.53553391       3.53553391      -2.00000000       29029.5723     -0.679635763    
   3.53553391       3.53553391      -1.00000000       29029.5723     -0.679635763    
   3.93283010       3.01776695      -1.00000000       29029.5723     -0.679635763    
   3.93283010       3.01776695      -2.00000000       29029.5723     -0.679635763    
   3.53553391       3.53553391      -1.00000000       35808.4961     -0.672339857    
   3.53553391       3.53553391       0.00000000       35808.4961     -0.672339857    
   3.93283010       3.01776695       0.00000000       35808.4961     -0.672339857    
   3.93283010       3.01776695      -1.00000000       35808.4961     -0.672339857    
   3.93283010       3.01776695      -10.0000000       3732.67407       8.35192129E-02
   3.93283010       3.01776695      -9.00000000       3732.67407       8.35192129E-02
   4.33012676       2.50000000      -9.00000000       3732.67407       8.35192129E-02
   4.33012676       2.50000000      -10.0000000       3732.67407       8.35192129E-02
   3.93283010       3.01776695      -9.00000000       5077.90186       6.22682497E-02
   3.93283010       3.01776695      -8.00000000       5077.90186       6.22682497E-02
   4.33012676       2.50000000      -8.00000000       5077.90186       6.22682497E-02
   4.33012676       2.50000000      -9.00000000       5077.90186       6.22682497E-02
   3.93283010       3.01776695      -8.00000000       6659.89355     -0.201865479    
   3.93283010       3.01776695      -7.00000000       6659.89355     -0.201865479    
   4.33012676       2.50000000      -7.00000000       6659.89355     -0.201865479    
   4.33012676       2.50000000      -8.00000000       6659.89355     -0.201865479    
   3.93283010       3.01776695      -7.00000000       9030.25293     -0.418422073    
   3.93283010       3.01776695      -6.00000000       9030.25293     -0.418422073    
   4.33012676       2.50000000      -6.00000000       9030.25293     -0.418422073    
   4.33012676       2.50000000      -7.00000000       9030.25293     -0.418422073    
   3.93283010       3.01776695      -6.00000000       12165.8125     -0.553682625    
   3.93283010       3.01776695      -5.00000000       12165.8125     -0.553682625    
   4.33012676       2.50000000      -5.00000000       12165.8125     -0.553682625    
   4.33012676       2.50000000      -6.00000000       12165.8125     -0.553682625    
   3.93283010       3.01776695      -5.00000000       15974.0381     -0.628552377    
   3.93283010       3.01776695      -4.00000000       15974.0381     -0.628552377    
   4.33012676       2.50000000      -4.00000000       15974.0381     -0.628552377    
   4.33012676       2.50000000      -5.00000000       15974.0381     -0.628552377    
   3.93283010       3.01776695      -4.00000000       20450.1797     -0.664923668    
   3.93283010       3.01776695      -3.00000000       20450.1797     -0.664923668    
   4.33012676       2.50000000      -3.00000000       20450.1797     -0.664923668    
   4.33012676       2.50000000      -4.00000000       20450.1797     -0.664923668    
   3.93283010       3.01776695      -3.00000000       25675.6602     -0.677047849    
   3.93283010       3.01776695      -2.00000000       25675.6602     -0.677047849    
   4.33012676       2.50000000      -2.00000000       25675.6602     -0.677047849    
   4.33012676       2.50000000      -3.00000000       25675.6602     -0.677047849    
   3.93283010       3.01776695      -2.00000000       31848.7617     -0.675321519    
   3.93283010       3.01776695      -1.00000000       31848.7617     -0.675321519    
   4.33012676       2.50000000      -1.00000000       31848.7617     -0.675321519    
   4.33012676       2.50000000      -2.00000000       31848.7617     -0.675321519    
   3.93283010       3.01776695      -1.00000000       39297.0312     -0.668258190    
   3.93283010       3.01776695       0.00000000       39297.0312     -0.668258190    
   4.33012676       2.50000000       0.00000000       39297.0312     -0.668258190    
   4.33012676       2.50000000      -1.00000000       39297.0312     -0.668258190    
   2.50000000       4.33012676      -10.0000000       2512.94312      0.102000996    
   2.50000000       4.33012676      -9.00000000       2512.94312      0.102000996    
   3.01776695       3.93283010      -9.00000000       2512.94312      0.102000996    
   3.01776695       3.93283010      -10.0000000       2512.94312      0.102000996    
   2.50000000       4.33012676      -9.00000000       3415.95239       6.98403493E-02
   2.50000000       4.33012676      -8.00000000       3415.95239       6.98403493E-02
   3.01776695       3.93283010      -8.00000000       3415.95239       6.98403493E-02
   3.01776695       3.93283010      -9.00000000       3415.95239       6.98403493E-02
   2.50000000       4.33012676      -8.00000000       4478.27246     -0.202086762    
   2.50000000       4.33012676      -7.00000000       4478.27246     -0.202086762    
   3.01776695       3.93283010      -7.00000000       4478.27246     -0.202086762    
   3.01776695       3.93283010      -8.00000000       4478.27246     -0.202086762    
   2.50000000       4.33012676      -7.00000000       6083.45752     -0.422639340    
   2.50000000       4.33012676      -6.00000000       6083.45752     -0.422639340    
   3.01776695       3.93283010      -6.00000000       6083.45752     -0.422639340    
   3.01776695       3.93283010      -7.00000000       6083.45752     -0.422639340    
   2.50000000       4.33012676      -6.00000000       8209.71094     -0.559434354    
   2.50000000       4.33012676      -5.00000000       8209.71094     -0.559434354    
   3.01776695       3.93283010      -5.00000000       8209.71094     -0.559434354    
   3.01776695       3.93283010      -6.00000000       8209.71094     -0.559434354    
   2.50000000       4.33012676      -5.00000000       10790.0303     -0.634762406    
   2.50000000       4.33012676      -4.00000000       10790.0303     -0.634762406    
   3.01776695       3.93283010      -4.00000000       10790.0303     -0.634762406    
   3.01776695       3.93283010      -5.00000000       10790.0303     -0.634762406    
   2.50000000       4.33012676      -4.00000000       13819.6553     -0.671228111    
   2.50000000       4.33012676      -3.00000000       13819.6553     -0.671228111    
   3.01776695       3.93283010      -3.00000000       13819.6553     -0.671228111    
   3.01776695       3.93283010      -4.00000000       13819.6553     -0.671228111    
   2.50000000       4.33012676      -3.00000000       17351.7227     -0.683262289    
   2.50000000       4.33012676      -2.00000000       17351.7227     -0.683262289    
   3.01776695       3.93283010      -2.00000000       17351.7227     -0.683262289    
   3.01776695       3.93283010      -3.00000000       17351.7227     -0.683262289    
   2.50000000       4.33012676      -2.00000000       21519.8809     -0.681347013    
   2.50000000       4.33012676      -1.00000000       21519.8809     -0.681347013    
   3.01776695       3.93283010      -1.00000000       21519.8809     -0.681347013    
   3.01776695       3.93283010      -2.00000000       21519.8809     -0.681347013    
   2.50000000       4.33012676      -1.00000000       26542.1855     -0.673958838    
   2.50000000       4.33012676       0.00000000       26542.1855     -0.673958838    
   3.01776695       3.93283010       0.00000000       26542.1855     -0.673958838    
   3.01776695       3.93283010      -1.00000000       26542.1855     -0.673958838    
   3.01776695       3.93283010      -10.0000000       2955.22534       7.94515312E-02
   3.01776695       3.93283010      -9.00000000       2955.22534       7.94515312E-02
   3.53553391       3.53553391      -9.00000000       2955.22534       7.94515312E-02
   3.53553391       3.53553391      -10.0000000       2955.22534       7.94515312E-02
   3.01776695       3.93283010      -9.00000000       4020.79297       6.06034622E-02
   3.01776695       3.93283010      -8.00000000       4020.79297       6.06034622E-02
   3.53553391       3.53553391      -8.00000000       4020.79297       6.06034622E-02
   3.53553391       3.53553391      -9.00000000       4020.79297       6.06034622E-02
   3.01776695       3.93283010      -8.00000000       5273.89697     -0.201817349    
   3.01776695       3.93283010      -7.00000000       5273.89697     -0.201817349    
   3.53553391       3.53553391      -7.00000000       5273.89697     -0.201817349    
   3.53553391       3.53553391      -8.00000000       5273.89697     -0.201817349    
   3.01776695       3.93283010      -7.00000000       7148.05762     -0.417492837    
   3.01776695       3.93283010      -6.00000000       7148.05762     -0.417492837    
   3.53553391       3.53553391      -6.00000000       7148.05762     -0.417492837    
   3.53553391       3.53553391      -7.00000000       7148.05762     -0.417492837    
   3.01776695       3.93283010      -6.00000000       9626.47656     -0.552413523    
   3.01776695       3.93283010      -5.00000000       9626.47656     -0.552413523    
   3.53553391       3.53553391      -5.00000000       9626.47656     -0.552413523    
   3.53553391       3.53553391      -6.00000000       9626.47656     -0.552413523    
   3.01776695       3.93283010      -5.00000000       12637.1396     -0.627180517    
   3.01776695       3.93283010      -4.00000000       12637.1396     -0.627180517    
   3.53553391       3.53553391      -4.00000000       12637.1396     -0.627180517    
   3.53553391       3.53553391      -5.00000000       12637.1396     -0.627180517    
   3.01776695       3.93283010      -4.00000000       16176.6494     -0.663529575    
   3.01776695       3.93283010      -3.00000000       16176.6494     -0.663529575    
   3.53553391       3.53553391      -3.00000000       16176.6494     -0.663529575    
   3.53553391       3.53553391      -4.00000000       16176.6494     -0.663529575    
   3.01776695       3.93283010      -3.00000000       20309.9336     -0.675674021    
   3.01776695       3.93283010      -2.00000000       20309.9336     -0.675674021    
   3.53553391       3.53553391      -2.00000000       20309.9336     -0.675674021    
   3.53553391       3.53553391      -3.00000000       20309.9336     -0.675674021    
   3.01776695       3.93283010      -2.00000000       25193.9219     -0.673989177    
   3.01776695       3.93283010      -1.00000000       25193.9219     -0.673989177    
   3.53553391       3.53553391      -1.00000000       25193.9219     -0.673989177    
   3.53553391       3.53553391      -2.00000000       25193.9219     -0.673989177    
   3.01776695       3.93283010      -1.00000000       31088.5234     -0.666998625    
   3.01776695       3.93283010       0.00000000       31088.5234     -0.666998625    
   3.53553391       3.53553391       0.00000000       31088.5234     -0.666998625    
   3.53553391       3.53553391      -1.00000000       31088.5234     -0.666998625    
   1.29409504       4.82962894      -10.0000000       1461.50391      0.114216298    
   1.29409504       4.82962894      -9.00000000       1461.50391      0.114216298    
   1.89704800       4.57987785      -9.00000000       1461.50391      0.114216298    
   1.89704800       4.57987785      -10.0000000       1461.50391      0.114216298    
   1.29409504       4.82962894      -9.00000000       1985.35730       7.48530254E-02
   1.29409504       4.82962894      -8.00000000       1985.35730       7.48530254E-02
   1.89704800       4.57987785      -8.00000000       1985.35730       7.48530254E-02
   1.89704800       4.57987785      -9.00000000       1985.35730       7.48530254E-02
   1.29409504       4.82962894      -8.00000000       2601.97314     -0.202232614    
   1.29409504       4.82962894      -7.00000000       2601.97314     -0.202232614    
   1.89704800       4.57987785      -7.00000000       2601.97314     -0.202232614    
   1.89704800       4.57987785      -8.00000000       2601.97314     -0.202232614    
   1.29409504       4.82962894      -7.00000000       3538.99780     -0.425424933    
   1.29409504       4.82962894      -6.00000000       3538.99780     -0.425424933    
   1.89704800       4.57987785      -6.00000000       3538.99780     -0.425424933    
   1.89704800       4.57987785      -7.00000000       3538.99780     -0.425424933    
   1.29409504       4.82962894      -6.00000000       4781.31787     -0.563221216    
   1.29409504       4.82962894      -5.00000000       4781.31787     -0.563221216    
   1.89704800       4.57987785      -5.00000000       4781.31787     -0.563221216    
   1.89704800       4.57987785      -6.00000000       4781.31787     -0.563221216    
   1.29409504       4.82962894      -5.00000000       6288.12061     -0.638844788    
   1.29409504       4.82962894      -4.00000000       6288.12061     -0.638844788    
   1.89704800       4.57987785      -4.00000000       6288.12061     -0.638844788    
   1.89704800       4.57987785      -5.00000000       6288.12061     -0.638844788    
   1.29409504       4.82962894      -4.00000000       8056.03760     -0.675370097    
   1.29409504       4.82962894      -3.00000000       8056.03760     -0.675370097    
   1.89704800       4.57987785      -3.00000000       8056.03760     -0.675370097    