 VARIABLES="X" "Y" "Z" "abs(p) (Pa)" "angle(p) (rad)"
ZONE N=   1080,E =     600, F=FEPOINT, ET=QUADRILATERAL
   4.82962894       1.29409504      -10.0000000       4645.51025     -0.954263389    
   4.82962894       1.29409504      -9.00000000       4645.51025     -0.954263389    
   4.91481400      0.647047520      -9.00000000       4645.51025     -0.954263389    
   4.91481400      0.647047520      -10.0000000       4645.51025     -0.954263389    
   4.82962894       1.29409504      -9.00000000       5823.99316     -0.979536712    
   4.82962894       1.29409504      -8.00000000       5823.99316     -0.979536712    
   4.91481400      0.647047520      -8.00000000       5823.99316     -0.979536712    
   4.91481400      0.647047520      -9.00000000       5823.99316     -0.979536712    
   4.82962894       1.29409504      -8.00000000       8041.66504      -1.08743215    
   4.82962894       1.29409504      -7.00000000       8041.66504      -1.08743215    
   4.91481400      0.647047520      -7.00000000       8041.66504      -1.08743215    
   4.91481400      0.647047520      -8.00000000       8041.66504      -1.08743215    
   4.82962894       1.29409504      -7.00000000       10825.2480      -1.16936016    
   4.82962894       1.29409504      -6.00000000       10825.2480      -1.16936016    
   4.91481400      0.647047520      -6.00000000       10825.2480      -1.16936016    
   4.91481400      0.647047520      -7.00000000       10825.2480      -1.16936016    
   4.82962894       1.29409504      -6.00000000       13977.4512      -1.22445738    
   4.82962894       1.29409504      -5.00000000       13977.4512      -1.22445738    
   4.91481400      0.647047520      -5.00000000       13977.4512      -1.22445738    
   4.91481400      0.647047520      -6.00000000       13977.4512      -1.22445738    
   4.82962894       1.29409504      -5.00000000       17376.9473      -1.26119769    
   4.82962894       1.29409504      -4.00000000       17376.9473      -1.26119769    
   4.91481400      0.647047520      -4.00000000       17376.9473      -1.26119769    
   4.91481400      0.647047520      -5.00000000       17376.9473      -1.26119769    
   4.82962894       1.29409504      -4.00000000       20932.3379      -1.28566825    
   4.82962894       1.29409504      -3.00000000       20932.3379      -1.28566825    
   4.91481400      0.647047520      -3.00000000       20932.3379      -1.28566825    
   4.91481400      0.647047520      -4.00000000       20932.3379      -1.28566825    
   4.82962894       1.29409504      -3.00000000       24570.0586      -1.30169511    
   4.82962894       1.29409504      -2.00000000       24570.0586      -1.30169511    
   4.91481400      0.647047520      -2.00000000       24570.0586      -1.30169511    
   4.91481400      0.647047520      -3.00000000       24570.0586      -1.30169511    
   4.82962894       1.29409504      -2.00000000       28229.9648      -1.31163490    
   4.82962894       1.29409504      -1.00000000       28229.9648      -1.31163490    
   4.91481400      0.647047520      -1.00000000       28229.9648      -1.31163490    
   4.91481400      0.647047520      -2.00000000       28229.9648      -1.31163490    
   4.82962894       1.29409504      -1.00000000       31793.6602      -1.31645131    
   4.82962894       1.29409504       0.00000000       31793.6602      -1.31645131    
   4.91481400      0.647047520       0.00000000       31793.6602      -1.31645131    
   4.91481400      0.647047520      -1.00000000       31793.6602      -1.31645131    
   4.91481400      0.647047520      -10.0000000       4728.67041     -0.955114424    
   4.91481400      0.647047520      -9.00000000       4728.67041     -0.955114424    
   5.00000000       0.00000000      -9.00000000       4728.67041     -0.955114424    
   5.00000000       0.00000000      -10.0000000       4728.67041     -0.955114424    
   4.91481400      0.647047520      -9.00000000       5924.08398     -0.979900241    
   4.91481400      0.647047520      -8.00000000       5924.08398     -0.979900241    
   5.00000000       0.00000000      -8.00000000       5924.08398     -0.979900241    
   5.00000000       0.00000000      -9.00000000       5924.08398     -0.979900241    
   4.91481400      0.647047520      -8.00000000       8175.28076      -1.08742321    
   4.91481400      0.647047520      -7.00000000       8175.28076      -1.08742321    
   5.00000000       0.00000000      -7.00000000       8175.28076      -1.08742321    
   5.00000000       0.00000000      -8.00000000       8175.28076      -1.08742321    
   4.91481400      0.647047520      -7.00000000       11001.4072      -1.16921079    
   4.91481400      0.647047520      -6.00000000       11001.4072      -1.16921079    
   5.00000000       0.00000000      -6.00000000       11001.4072      -1.16921079    
   5.00000000       0.00000000      -7.00000000       11001.4072      -1.16921079    
   4.91481400      0.647047520      -6.00000000       14202.0947      -1.22425950    
   4.91481400      0.647047520      -5.00000000       14202.0947      -1.22425950    
   5.00000000       0.00000000      -5.00000000       14202.0947      -1.22425950    
   5.00000000       0.00000000      -6.00000000       14202.0947      -1.22425950    
   4.91481400      0.647047520      -5.00000000       17654.1348      -1.26098418    
   4.91481400      0.647047520      -4.00000000       17654.1348      -1.26098418    
   5.00000000       0.00000000      -4.00000000       17654.1348      -1.26098418    
   5.00000000       0.00000000      -5.00000000       17654.1348      -1.26098418    
   4.91481400      0.647047520      -4.00000000       21264.5508      -1.28544986    
   4.91481400      0.647047520      -3.00000000       21264.5508      -1.28544986    
   5.00000000       0.00000000      -3.00000000       21264.5508      -1.28544986    
   5.00000000       0.00000000      -4.00000000       21264.5508      -1.28544986    
   4.91481400      0.647047520      -3.00000000       24958.7363      -1.30147564    
   4.91481400      0.647047520      -2.00000000       24958.7363      -1.30147564    
   5.00000000       0.00000000      -2.00000000       24958.7363      -1.30147564    
   5.00000000       0.00000000      -3.00000000       24958.7363      -1.30147564    
   4.91481400      0.647047520      -2.00000000       28675.5000      -1.31141365    
   4.91481400      0.647047520      -1.00000000       28675.5000      -1.31141365    
   5.00000000       0.00000000      -1.00000000       28675.5000      -1.31141365    
   5.00000000       0.00000000      -2.00000000       28675.5000      -1.31141365    
   4.91481400      0.647047520      -1.00000000       32294.8555      -1.31622839    
   4.91481400      0.647047520       0.00000000       32294.8555      -1.31622839    
   5.00000000       0.00000000       0.00000000       32294.8555      -1.31622839    
   5.00000000       0.00000000      -1.00000000       32294.8555      -1.31622839    
   4.33012676       2.50000000      -10.0000000       4245.76611     -0.953315556    
   4.33012676       2.50000000      -9.00000000       4245.76611     -0.953315556    
   4.57987785       1.89704800      -9.00000000       4245.76611     -0.953315556    
   4.57987785       1.89704800      -10.0000000       4245.76611     -0.953315556    
   4.33012676       2.50000000      -9.00000000       5327.00146     -0.979132831    
   4.33012676       2.50000000      -8.00000000       5327.00146     -0.979132831    
   4.57987785       1.89704800      -8.00000000       5327.00146     -0.979132831    
   4.57987785       1.89704800      -9.00000000       5327.00146     -0.979132831    
   4.33012676       2.50000000      -8.00000000       7360.02637      -1.08744216    
   4.33012676       2.50000000      -7.00000000       7360.02637      -1.08744216    
   4.57987785       1.89704800      -7.00000000       7360.02637      -1.08744216    
   4.57987785       1.89704800      -8.00000000       7360.02637      -1.08744216    
   4.33012676       2.50000000      -7.00000000       9911.36328      -1.16952538    
   4.33012676       2.50000000      -6.00000000       9911.36328      -1.16952538    
   4.57987785       1.89704800      -6.00000000       9911.36328      -1.16952538    
   4.57987785       1.89704800      -7.00000000       9911.36328      -1.16952538    
   4.33012676       2.50000000      -6.00000000       12800.2734      -1.22467744    
   4.33012676       2.50000000      -5.00000000       12800.2734      -1.22467744    
   4.57987785       1.89704800      -5.00000000       12800.2734      -1.22467744    
   4.57987785       1.89704800      -6.00000000       12800.2734      -1.22467744    
   4.33012676       2.50000000      -5.00000000       15915.5498      -1.26143420    
   4.33012676       2.50000000      -4.00000000       15915.5498      -1.26143420    
   4.57987785       1.89704800      -4.00000000       15915.5498      -1.26143420    
   4.57987785       1.89704800      -5.00000000       15915.5498      -1.26143420    
   4.33012676       2.50000000      -4.00000000       19173.6230      -1.28591108    
   4.33012676       2.50000000      -3.00000000       19173.6230      -1.28591108    
   4.57987785       1.89704800      -3.00000000       19173.6230      -1.28591108    
   4.57987785       1.89704800      -4.00000000       19173.6230      -1.28591108    
   4.33012676       2.50000000      -3.00000000       22506.9609      -1.30193901    
   4.33012676       2.50000000      -2.00000000       22506.9609      -1.30193901    
   4.57987785       1.89704800      -2.00000000       22506.9609      -1.30193901    
   4.57987785       1.89704800      -3.00000000       22506.9609      -1.30193901    
   4.33012676       2.50000000      -2.00000000       25860.6445      -1.31188023    
   4.33012676       2.50000000      -1.00000000       25860.6445      -1.31188023    
   4.57987785       1.89704800      -1.00000000       25860.6445      -1.31188023    
   4.57987785       1.89704800      -2.00000000       25860.6445      -1.31188023    
   4.33012676       2.50000000      -1.00000000       29125.8047      -1.31669831    
   4.33012676       2.50000000       0.00000000       29125.8047      -1.31669831    
   4.57987785       1.89704800       0.00000000       29125.8047      -1.31669831    
   4.57987785       1.89704800      -1.00000000       29125.8047      -1.31669831    
   4.57987785       1.89704800      -10.0000000       4489.58398     -0.955993891    
   4.57987785       1.89704800      -9.00000000       4489.58398     -0.955993891    
   4.82962894       1.29409504      -9.00000000       4489.58398     -0.955993891    
   4.82962894       1.29409504      -10.0000000       4489.58398     -0.955993891    
   4.57987785       1.89704800      -9.00000000       5620.45801     -0.980277240    
   4.57987785       1.89704800      -8.00000000       5620.45801     -0.980277240    
   4.82962894       1.29409504      -8.00000000       5620.45801     -0.980277240    
   4.82962894       1.29409504      -9.00000000       5620.45801     -0.980277240    
   4.57987785       1.89704800      -8.00000000       7751.76025      -1.08741355    
   4.57987785       1.89704800      -7.00000000       7751.76025      -1.08741355    
   4.82962894       1.29409504      -7.00000000       7751.76025      -1.08741355    
   4.82962894       1.29409504      -8.00000000       7751.76025      -1.08741355    
   4.57987785       1.89704800      -7.00000000       10427.8447      -1.16905618    
   4.57987785       1.89704800      -6.00000000       10427.8447      -1.16905618    
   4.82962894       1.29409504      -6.00000000       10427.8447      -1.16905618    
   4.82962894       1.29409504      -7.00000000       10427.8447      -1.16905618    
   4.57987785       1.89704800      -6.00000000       13458.8984      -1.22405350    
   4.57987785       1.89704800      -5.00000000       13458.8984      -1.22405350    
   4.82962894       1.29409504      -5.00000000       13458.8984      -1.22405350    
   4.82962894       1.29409504      -6.00000000       13458.8984      -1.22405350    
   4.57987785       1.89704800      -5.00000000       16728.2246      -1.26076305    
   4.57987785       1.89704800      -4.00000000       16728.2246      -1.26076305    
   4.82962894       1.29409504      -4.00000000       16728.2246      -1.26076305    
   4.82962894       1.29409504      -5.00000000       16728.2246      -1.26076305    
   4.57987785       1.89704800      -4.00000000       20147.6270      -1.28522277    
   4.57987785       1.89704800      -3.00000000       20147.6270      -1.28522277    
   4.82962894       1.29409504      -3.00000000       20147.6270      -1.28522277    
   4.82962894       1.29409504      -4.00000000       20147.6270      -1.28522277    
   4.57987785       1.89704800      -3.00000000       23646.5332      -1.30124700    
   4.57987785       1.89704800      -2.00000000       23646.5332      -1.30124700    
   4.82962894       1.29409504      -2.00000000       23646.5332      -1.30124700    
   4.82962894       1.29409504      -3.00000000       23646.5332      -1.30124700    
   4.57987785       1.89704800      -2.00000000       27166.8184      -1.31118429    
   4.57987785       1.89704800      -1.00000000       27166.8184      -1.31118429    
   4.82962894       1.29409504      -1.00000000       27166.8184      -1.31118429    
   4.82962894       1.29409504      -2.00000000       27166.8184      -1.31118429    
   4.57987785       1.89704800      -1.00000000       30595.1855      -1.31599677    
   4.57987785       1.89704800       0.00000000       30595.1855      -1.31599677    
   4.82962894       1.29409504       0.00000000       30595.1855      -1.31599677    
   4.82962894       1.29409504      -1.00000000       30595.1855      -1.31599677    
   3.53553391       3.53553391      -10.0000000       3556.68848     -0.952079296    
   3.53553391       3.53553391      -9.00000000       3556.68848     -0.952079296    
   3.93283010       3.01776695      -9.00000000       3556.68848     -0.952079296    
   3.93283010       3.01776695      -10.0000000       3556.68848     -0.952079296    
   3.53553391       3.53553391      -9.00000000       4466.99072     -0.978604853    
   3.53553391       3.53553391      -8.00000000       4466.99072     -0.978604853    
   3.93283010       3.01776695      -8.00000000       4466.99072     -0.978604853    
   3.93283010       3.01776695      -9.00000000       4466.99072     -0.978604853    
   3.53553391       3.53553391      -8.00000000       6176.81152      -1.08745468    
   3.53553391       3.53553391      -7.00000000       6176.81152      -1.08745468    
   3.93283010       3.01776695      -7.00000000       6176.81152      -1.08745468    
   3.93283010       3.01776695      -8.00000000       6176.81152      -1.08745468    
   3.53553391       3.53553391      -7.00000000       8322.03320      -1.16974008    
   3.53553391       3.53553391      -6.00000000       8322.03320      -1.16974008    
   3.93283010       3.01776695      -6.00000000       8322.03320      -1.16974008    
   3.93283010       3.01776695      -7.00000000       8322.03320      -1.16974008    
   3.53553391       3.53553391      -6.00000000       10750.7764      -1.22496331    
   3.53553391       3.53553391      -5.00000000       10750.7764      -1.22496331    
   3.93283010       3.01776695      -5.00000000       10750.7764      -1.22496331    
   3.93283010       3.01776695      -6.00000000       10750.7764      -1.22496331    
   3.53553391       3.53553391      -5.00000000       13369.5420      -1.26174200    
   3.53553391       3.53553391      -4.00000000       13369.5420      -1.26174200    
   3.93283010       3.01776695      -4.00000000       13369.5420      -1.26174200    
   3.93283010       3.01776695      -5.00000000       13369.5420      -1.26174200    
   3.53553391       3.53553391      -4.00000000       16108.2510      -1.28622580    
   3.53553391       3.53553391      -3.00000000       16108.2510      -1.28622580    
   3.93283010       3.01776695      -3.00000000       16108.2510      -1.28622580    
   3.93283010       3.01776695      -4.00000000       16108.2510      -1.28622580    
   3.53553391       3.53553391      -3.00000000       18910.0664      -1.30225492    
   3.53553391       3.53553391      -2.00000000       18910.0664      -1.30225492    
   3.93283010       3.01776695      -2.00000000       18910.0664      -1.30225492    
   3.93283010       3.01776695      -3.00000000       18910.0664      -1.30225492    
   3.53553391       3.53553391      -2.00000000       21728.9434      -1.31219816    
   3.53553391       3.53553391      -1.00000000       21728.9434      -1.31219816    
   3.93283010       3.01776695      -1.00000000       21728.9434      -1.31219816    
   3.93283010       3.01776695      -2.00000000       21728.9434      -1.31219816    
   3.53553391       3.53553391      -1.00000000       24473.0801      -1.31701887    
   3.53553391       3.53553391       0.00000000       24473.0801      -1.31701887    
   3.93283010       3.01776695       0.00000000       24473.0801      -1.31701887    
   3.93283010       3.01776695      -1.00000000       24473.0801      -1.31701887    
   3.93283010       3.01776695      -10.0000000       3944.54395     -0.957048833    
   3.93283010       3.01776695      -9.00000000       3944.54395     -0.957048833    
   4.33012676       2.50000000      -9.00000000       3944.54395     -0.957048833    
   4.33012676       2.50000000      -10.0000000       3944.54395     -0.957048833    
   3.93283010       3.01776695      -9.00000000       4933.80908     -0.980729759    
   3.93283010       3.01776695      -8.00000000       4933.80908     -0.980729759    
   4.33012676       2.50000000      -8.00000000       4933.80908     -0.980729759    
   4.33012676       2.50000000      -9.00000000       4933.80908     -0.980729759    
   3.93283010       3.01776695      -8.00000000       6799.96973      -1.08740354    
   3.93283010       3.01776695      -7.00000000       6799.96973      -1.08740354    
   4.33012676       2.50000000      -7.00000000       6799.96973      -1.08740354    
   4.33012676       2.50000000      -8.00000000       6799.96973      -1.08740354    
   3.93283010       3.01776695      -7.00000000       9143.64062      -1.16886997    
   3.93283010       3.01776695      -6.00000000       9143.64062      -1.16886997    
   4.33012676       2.50000000      -6.00000000       9143.64062      -1.16886997    
   4.33012676       2.50000000      -7.00000000       9143.64062      -1.16886997    
   3.93283010       3.01776695      -6.00000000       11798.4844      -1.22380590    
   3.93283010       3.01776695      -5.00000000       11798.4844      -1.22380590    
   4.33012676       2.50000000      -5.00000000       11798.4844      -1.22380590    
   4.33012676       2.50000000      -6.00000000       11798.4844      -1.22380590    
   3.93283010       3.01776695      -5.00000000       14662.3193      -1.26049614    
   3.93283010       3.01776695      -4.00000000       14662.3193      -1.26049614    
   4.33012676       2.50000000      -4.00000000       14662.3193      -1.26049614    
   4.33012676       2.50000000      -5.00000000       14662.3193      -1.26049614    
   3.93283010       3.01776695      -4.00000000       17657.6855      -1.28494990    
   3.93283010       3.01776695      -3.00000000       17657.6855      -1.28494990    
   4.33012676       2.50000000      -3.00000000       17657.6855      -1.28494990    
   4.33012676       2.50000000      -4.00000000       17657.6855      -1.28494990    
   3.93283010       3.01776695      -3.00000000       20722.8496      -1.30097258    
   3.93283010       3.01776695      -2.00000000       20722.8496      -1.30097258    
   4.33012676       2.50000000      -2.00000000       20722.8496      -1.30097258    
   4.33012676       2.50000000      -3.00000000       20722.8496      -1.30097258    
   3.93283010       3.01776695      -2.00000000       23806.7734      -1.31090784    
   3.93283010       3.01776695      -1.00000000       23806.7734      -1.31090784    
   4.33012676       2.50000000      -1.00000000       23806.7734      -1.31090784    
   4.33012676       2.50000000      -2.00000000       23806.7734      -1.31090784    
   3.93283010       3.01776695      -1.00000000       26810.5215      -1.31571805    
   3.93283010       3.01776695       0.00000000       26810.5215      -1.31571805    
   4.33012676       2.50000000       0.00000000       26810.5215      -1.31571805    
   4.33012676       2.50000000      -1.00000000       26810.5215      -1.31571805    
   2.50000000       4.33012676      -10.0000000       2625.23340     -0.950077653    
   2.50000000       4.33012676      -9.00000000       2625.23340     -0.950077653    
   3.01776695       3.93283010      -9.00000000       2625.23340     -0.950077653    
   3.01776695       3.93283010      -10.0000000       2625.23340     -0.950077653    
   2.50000000       4.33012676      -9.00000000       3302.56055     -0.977755725    
   2.50000000       4.33012676      -8.00000000       3302.56055     -0.977755725    
   3.01776695       3.93283010      -8.00000000       3302.56055     -0.977755725    
   3.01776695       3.93283010      -9.00000000       3302.56055     -0.977755725    
   2.50000000       4.33012676      -8.00000000       4572.66357      -1.08747470    
   2.50000000       4.33012676      -7.00000000       4572.66357      -1.08747470    
   3.01776695       3.93283010      -7.00000000       4572.66357      -1.08747470    
   3.01776695       3.93283010      -8.00000000       4572.66357      -1.08747470    
   2.50000000       4.33012676      -7.00000000       6165.57812      -1.17008543    
   2.50000000       4.33012676      -6.00000000       6165.57812      -1.17008543    
   3.01776695       3.93283010      -6.00000000       6165.57812      -1.17008543    
   3.01776695       3.93283010      -7.00000000       6165.57812      -1.17008543    
   2.50000000       4.33012676      -6.00000000       7968.62695      -1.22542214    
   2.50000000       4.33012676      -5.00000000       7968.62695      -1.22542214    
   3.01776695       3.93283010      -5.00000000       7968.62695      -1.22542214    
   3.01776695       3.93283010      -6.00000000       7968.62695      -1.22542214    
   2.50000000       4.33012676      -5.00000000       9912.41797      -1.26223516    
   2.50000000       4.33012676      -4.00000000       9912.41797      -1.26223516    
   3.01776695       3.93283010      -4.00000000       9912.41797      -1.26223516    
   3.01776695       3.93283010      -5.00000000       9912.41797      -1.26223516    
   2.50000000       4.33012676      -4.00000000       11945.1445      -1.28673053    
   2.50000000       4.33012676      -3.00000000       11945.1445      -1.28673053    
   3.01776695       3.93283010      -3.00000000       11945.1445      -1.28673053    
   3.01776695       3.93283010      -4.00000000       11945.1445      -1.28673053    
   2.50000000       4.33012676      -3.00000000       14024.4756      -1.30276310    
   2.50000000       4.33012676      -2.00000000       14024.4756      -1.30276310    
   3.01776695       3.93283010      -2.00000000       14024.4756      -1.30276310    
   3.01776695       3.93283010      -3.00000000       14024.4756      -1.30276310    
   2.50000000       4.33012676      -2.00000000       16116.4434      -1.31270885    
   2.50000000       4.33012676      -1.00000000       16116.4434      -1.31270885    
   3.01776695       3.93283010      -1.00000000       16116.4434      -1.31270885    
   3.01776695       3.93283010      -2.00000000       16116.4434      -1.31270885    
   2.50000000       4.33012676      -1.00000000       18152.5469      -1.31753409    
   2.50000000       4.33012676       0.00000000       18152.5469      -1.31753409    
   3.01776695       3.93283010       0.00000000       18152.5469      -1.31753409    
   3.01776695       3.93283010      -1.00000000       18152.5469      -1.31753409    
   3.01776695       3.93283010      -10.0000000       3130.69849     -0.958561420    
   3.01776695       3.93283010      -9.00000000       3130.69849     -0.958561420    
   3.53553391       3.53553391      -9.00000000       3130.69849     -0.958561420    
   3.53553391       3.53553391      -10.0000000       3130.69849     -0.958561420    
   3.01776695       3.93283010      -9.00000000       3910.93286     -0.981380105    
   3.01776695       3.93283010      -8.00000000       3910.93286     -0.981380105    
   3.53553391       3.53553391      -8.00000000       3910.93286     -0.981380105    
   3.53553391       3.53553391      -9.00000000       3910.93286     -0.981380105    
   3.01776695       3.93283010      -8.00000000       5384.77588      -1.08738768    
   3.01776695       3.93283010      -7.00000000       5384.77588      -1.08738768    
   3.53553391       3.53553391      -7.00000000       5384.77588      -1.08738768    
   3.53553391       3.53553391      -8.00000000       5384.77588      -1.08738768    
   3.01776695       3.93283010      -7.00000000       7236.31250      -1.16860187    
   3.01776695       3.93283010      -6.00000000       7236.31250      -1.16860187    
   3.53553391       3.53553391      -6.00000000       7236.31250      -1.16860187    
   3.53553391       3.53553391      -7.00000000       7236.31250      -1.16860187    
   3.01776695       3.93283010      -6.00000000       9334.03613      -1.22344851    
   3.01776695       3.93283010      -5.00000000       9334.03613      -1.22344851    
   3.53553391       3.53553391      -5.00000000       9334.03613      -1.22344851    
   3.53553391       3.53553391      -6.00000000       9334.03613      -1.22344851    
   3.01776695       3.93283010      -5.00000000       11597.1846      -1.26011109    
   3.01776695       3.93283010      -4.00000000       11597.1846      -1.26011109    
   3.53553391       3.53553391      -4.00000000       11597.1846      -1.26011109    
   3.53553391       3.53553391      -5.00000000       11597.1846      -1.26011109    
   3.01776695       3.93283010      -4.00000000       13964.3838      -1.28455508    
   3.01776695       3.93283010      -3.00000000       13964.3838      -1.28455508    
   3.53553391       3.53553391      -3.00000000       13964.3838      -1.28455508    
   3.53553391       3.53553391      -4.00000000       13964.3838      -1.28455508    
   3.01776695       3.93283010      -3.00000000       16386.9375      -1.30057597    
   3.01776695       3.93283010      -2.00000000       16386.9375      -1.30057597    
   3.53553391       3.53553391      -2.00000000       16386.9375      -1.30057597    
   3.53553391       3.53553391      -3.00000000       16386.9375      -1.30057597    
   3.01776695       3.93283010      -2.00000000       18824.3652      -1.31050920    
   3.01776695       3.93283010      -1.00000000       18824.3652      -1.31050920    
   3.53553391       3.53553391      -1.00000000       18824.3652      -1.31050920    
   3.53553391       3.53553391      -2.00000000       18824.3652      -1.31050920    
   3.01776695       3.93283010      -1.00000000       21198.7617      -1.31531501    
   3.01776695       3.93283010       0.00000000       21198.7617      -1.31531501    
   3.53553391       3.53553391       0.00000000       21198.7617      -1.31531501    
   3.53553391       3.53553391      -1.00000000       21198.7617      -1.31531501    
   1.29409504       4.82962894      -10.0000000       1514.90271     -0.945378900    
   1.29409504       4.82962894      -9.00000000       1514.90271     -0.945378900    
   1.89704800       4.57987785      -9.00000000       1514.90271     -0.945378900    
   1.89704800       4.57987785      -10.0000000       1514.90271     -0.945378900    
   1.29409504       4.82962894      -9.00000000       1913.07349     -0.975771546    
   1.29409504       4.82962894      -8.00000000       1913.07349     -0.975771546    
   1.89704800       4.57987785      -8.00000000       1913.07349     -0.975771546    
   1.89704800       4.57987785      -9.00000000       1913.07349     -0.975771546    
   1.29409504       4.82962894      -8.00000000       2656.88916      -1.08752167    
   1.29409504       4.82962894      -7.00000000       2656.88916      -1.08752167    
   1.89704800       4.57987785      -7.00000000       2656.88916      -1.08752167    
   1.89704800       4.57987785      -8.00000000       2656.88916      -1.08752167    
   1.29409504       4.82962894      -7.00000000       3588.93872      -1.17088950    
   1.29409504       4.82962894      -6.00000000       3588.93872      -1.17088950    
   1.89704800       4.57987785      -6.00000000       3588.93872      -1.17088950    
   1.89704800       4.57987785      -7.00000000       3588.93872      -1.17088950    
   1.29409504       4.82962894      -6.00000000       4643.43555      -1.22648501    
   1.29409504       4.82962894      -5.00000000       4643.43555      -1.22648501    
   1.89704800       4.57987785      -5.00000000       4643.43555      -1.22648501    
   1.89704800       4.57987785      -6.00000000       4643.43555      -1.22648501    
   1.29409504       4.82962894      -5.00000000       5779.78320      -1.26337790    
   1.29409504       4.82962894      -4.00000000       5779.78320      -1.26337790    
   1.89704800       4.57987785      -4.00000000       5779.78320      -1.26337790    
   1.89704800       4.57987785      -5.00000000       5779.78320      -1.26337790    
   1.29409504       4.82962894      -4.00000000       6967.97754      -1.28789926    
   1.29409504       4.82962894      -3.00000000       6967.97754      -1.28789926    
   1.89704800       4.57987785      -3.00000000       6967.97754      -1.28789926    