 VARIABLES="X" "Y" "Z" "abs(p) (Pa)" "angle(p) (rad)"
ZONE N=   1080,E =     600, F=FEPOINT, ET=QUADRILATERAL
   4.82962894       1.29409504      -10.0000000       108.061401       1.57079566    
   4.82962894       1.29409504      -9.00000000       108.061401       1.57079566    
   4.91481400      0.647047520      -9.00000000       108.061401       1.57079566    
   4.91481400      0.647047520      -10.0000000       108.061401       1.57079566    
   4.82962894       1.29409504      -9.00000000       110.510033       1.57079542    
   4.82962894       1.29409504      -8.00000000       110.510033       1.57079542    
   4.91481400      0.647047520      -8.00000000       110.510033       1.57079542    
   4.91481400      0.647047520      -9.00000000       110.510033       1.57079542    
   4.82962894       1.29409504      -8.00000000       110.523796       1.57079506    
   4.82962894       1.29409504      -7.00000000       110.523796       1.57079506    
   4.91481400      0.647047520      -7.00000000       110.523796       1.57079506    
   4.91481400      0.647047520      -8.00000000       110.523796       1.57079506    
   4.82962894       1.29409504      -7.00000000       110.542122       1.57079482    
   4.82962894       1.29409504      -6.00000000       110.542122       1.57079482    
   4.91481400      0.647047520      -6.00000000       110.542122       1.57079482    
   4.91481400      0.647047520      -7.00000000       110.542122       1.57079482    
   4.82962894       1.29409504      -6.00000000       110.499969       1.57079399    
   4.82962894       1.29409504      -5.00000000       110.499969       1.57079399    
   4.91481400      0.647047520      -5.00000000       110.499969       1.57079399    
   4.91481400      0.647047520      -6.00000000       110.499969       1.57079399    
   4.82962894       1.29409504      -5.00000000       110.500153       1.57079375    
   4.82962894       1.29409504      -4.00000000       110.500153       1.57079375    
   4.91481400      0.647047520      -4.00000000       110.500153       1.57079375    
   4.91481400      0.647047520      -5.00000000       110.500153       1.57079375    
   4.82962894       1.29409504      -4.00000000       110.585655       1.57079327    
   4.82962894       1.29409504      -3.00000000       110.585655       1.57079327    
   4.91481400      0.647047520      -3.00000000       110.585655       1.57079327    
   4.91481400      0.647047520      -4.00000000       110.585655       1.57079327    
   4.82962894       1.29409504      -3.00000000       110.551826       1.57079303    
   4.82962894       1.29409504      -2.00000000       110.551826       1.57079303    
   4.91481400      0.647047520      -2.00000000       110.551826       1.57079303    
   4.91481400      0.647047520      -3.00000000       110.551826       1.57079303    
   4.82962894       1.29409504      -2.00000000       110.567276       1.57079291    
   4.82962894       1.29409504      -1.00000000       110.567276       1.57079291    
   4.91481400      0.647047520      -1.00000000       110.567276       1.57079291    
   4.91481400      0.647047520      -2.00000000       110.567276       1.57079291    
   4.82962894       1.29409504      -1.00000000       110.140343       1.57079172    
   4.82962894       1.29409504       0.00000000       110.140343       1.57079172    
   4.91481400      0.647047520       0.00000000       110.140343       1.57079172    
   4.91481400      0.647047520      -1.00000000       110.140343       1.57079172    
   4.91481400      0.647047520      -10.0000000       108.063438      -1.57079697    
   4.91481400      0.647047520      -9.00000000       108.063438      -1.57079697    
   5.00000000       0.00000000      -9.00000000       108.063438      -1.57079697    
   5.00000000       0.00000000      -10.0000000       108.063438      -1.57079697    
   4.91481400      0.647047520      -9.00000000       110.512634      -1.57079720    
   4.91481400      0.647047520      -8.00000000       110.512634      -1.57079720    
   5.00000000       0.00000000      -8.00000000       110.512634      -1.57079720    
   5.00000000       0.00000000      -9.00000000       110.512634      -1.57079720    
   4.91481400      0.647047520      -8.00000000       110.526260      -1.57079768    
   4.91481400      0.647047520      -7.00000000       110.526260      -1.57079768    
   5.00000000       0.00000000      -7.00000000       110.526260      -1.57079768    
   5.00000000       0.00000000      -8.00000000       110.526260      -1.57079768    
   4.91481400      0.647047520      -7.00000000       110.544395      -1.57079780    
   4.91481400      0.647047520      -6.00000000       110.544395      -1.57079780    
   5.00000000       0.00000000      -6.00000000       110.544395      -1.57079780    
   5.00000000       0.00000000      -7.00000000       110.544395      -1.57079780    
   4.91481400      0.647047520      -6.00000000       110.502571      -1.57079816    
   4.91481400      0.647047520      -5.00000000       110.502571      -1.57079816    
   5.00000000       0.00000000      -5.00000000       110.502571      -1.57079816    
   5.00000000       0.00000000      -6.00000000       110.502571      -1.57079816    
   4.91481400      0.647047520      -5.00000000       110.502777      -1.57079828    
   4.91481400      0.647047520      -4.00000000       110.502777      -1.57079828    
   5.00000000       0.00000000      -4.00000000       110.502777      -1.57079828    
   5.00000000       0.00000000      -5.00000000       110.502777      -1.57079828    
   4.91481400      0.647047520      -4.00000000       110.587982      -1.57079923    
   4.91481400      0.647047520      -3.00000000       110.587982      -1.57079923    
   5.00000000       0.00000000      -3.00000000       110.587982      -1.57079923    
   5.00000000       0.00000000      -4.00000000       110.587982      -1.57079923    
   4.91481400      0.647047520      -3.00000000       110.554146      -1.57079995    
   4.91481400      0.647047520      -2.00000000       110.554146      -1.57079995    
   5.00000000       0.00000000      -2.00000000       110.554146      -1.57079995    
   5.00000000       0.00000000      -3.00000000       110.554146      -1.57079995    
   4.91481400      0.647047520      -2.00000000       110.569420      -1.57080054    
   4.91481400      0.647047520      -1.00000000       110.569420      -1.57080054    
   5.00000000       0.00000000      -1.00000000       110.569420      -1.57080054    
   5.00000000       0.00000000      -2.00000000       110.569420      -1.57080054    
   4.91481400      0.647047520      -1.00000000       110.142624      -1.57080150    
   4.91481400      0.647047520       0.00000000       110.142624      -1.57080150    
   5.00000000       0.00000000       0.00000000       110.142624      -1.57080150    
   5.00000000       0.00000000      -1.00000000       110.142624      -1.57080150    
   4.33012676       2.50000000      -10.0000000       108.062668       1.57079566    
   4.33012676       2.50000000      -9.00000000       108.062668       1.57079566    
   4.57987785       1.89704800      -9.00000000       108.062668       1.57079566    
   4.57987785       1.89704800      -10.0000000       108.062668       1.57079566    
   4.33012676       2.50000000      -9.00000000       110.511665       1.57079530    
   4.33012676       2.50000000      -8.00000000       110.511665       1.57079530    
   4.57987785       1.89704800      -8.00000000       110.511665       1.57079530    
   4.57987785       1.89704800      -9.00000000       110.511665       1.57079530    
   4.33012676       2.50000000      -8.00000000       110.525124       1.57079494    
   4.33012676       2.50000000      -7.00000000       110.525124       1.57079494    
   4.57987785       1.89704800      -7.00000000       110.525124       1.57079494    
   4.57987785       1.89704800      -8.00000000       110.525124       1.57079494    
   4.33012676       2.50000000      -7.00000000       110.543190       1.57079434    
   4.33012676       2.50000000      -6.00000000       110.543190       1.57079434    
   4.57987785       1.89704800      -6.00000000       110.543190       1.57079434    
   4.57987785       1.89704800      -7.00000000       110.543190       1.57079434    
   4.33012676       2.50000000      -6.00000000       110.501785       1.57079434    
   4.33012676       2.50000000      -5.00000000       110.501785       1.57079434    
   4.57987785       1.89704800      -5.00000000       110.501785       1.57079434    
   4.57987785       1.89704800      -6.00000000       110.501785       1.57079434    
   4.33012676       2.50000000      -5.00000000       110.501579       1.57079351    
   4.33012676       2.50000000      -4.00000000       110.501579       1.57079351    
   4.57987785       1.89704800      -4.00000000       110.501579       1.57079351    
   4.57987785       1.89704800      -5.00000000       110.501579       1.57079351    
   4.33012676       2.50000000      -4.00000000       110.587181       1.57079351    
   4.33012676       2.50000000      -3.00000000       110.587181       1.57079351    
   4.57987785       1.89704800      -3.00000000       110.587181       1.57079351    
   4.57987785       1.89704800      -4.00000000       110.587181       1.57079351    
   4.33012676       2.50000000      -3.00000000       110.553116       1.57079351    
   4.33012676       2.50000000      -2.00000000       110.553116       1.57079351    
   4.57987785       1.89704800      -2.00000000       110.553116       1.57079351    
   4.57987785       1.89704800      -3.00000000       110.553116       1.57079351    
   4.33012676       2.50000000      -2.00000000       110.568520       1.57079220    
   4.33012676       2.50000000      -1.00000000       110.568520       1.57079220    
   4.57987785       1.89704800      -1.00000000       110.568520       1.57079220    
   4.57987785       1.89704800      -2.00000000       110.568520       1.57079220    
   4.33012676       2.50000000      -1.00000000       110.141777       1.57079172    
   4.33012676       2.50000000       0.00000000       110.141777       1.57079172    
   4.57987785       1.89704800       0.00000000       110.141777       1.57079172    
   4.57987785       1.89704800      -1.00000000       110.141777       1.57079172    
   4.57987785       1.89704800      -10.0000000       108.063324      -1.57079661    
   4.57987785       1.89704800      -9.00000000       108.063324      -1.57079661    
   4.82962894       1.29409504      -9.00000000       108.063324      -1.57079661    
   4.82962894       1.29409504      -10.0000000       108.063324      -1.57079661    
   4.57987785       1.89704800      -9.00000000       110.512321      -1.57079709    
   4.57987785       1.89704800      -8.00000000       110.512321      -1.57079709    
   4.82962894       1.29409504      -8.00000000       110.512321      -1.57079709    
   4.82962894       1.29409504      -9.00000000       110.512321      -1.57079709    
   4.57987785       1.89704800      -8.00000000       110.526230      -1.57079720    
   4.57987785       1.89704800      -7.00000000       110.526230      -1.57079720    
   4.82962894       1.29409504      -7.00000000       110.526230      -1.57079720    
   4.82962894       1.29409504      -8.00000000       110.526230      -1.57079720    
   4.57987785       1.89704800      -7.00000000       110.544350      -1.57079768    
   4.57987785       1.89704800      -6.00000000       110.544350      -1.57079768    
   4.82962894       1.29409504      -6.00000000       110.544350      -1.57079768    
   4.82962894       1.29409504      -7.00000000       110.544350      -1.57079768    
   4.57987785       1.89704800      -6.00000000       110.502632      -1.57079768    
   4.57987785       1.89704800      -5.00000000       110.502632      -1.57079768    
   4.82962894       1.29409504      -5.00000000       110.502632      -1.57079768    
   4.82962894       1.29409504      -6.00000000       110.502632      -1.57079768    
   4.57987785       1.89704800      -5.00000000       110.502693      -1.57079828    
   4.57987785       1.89704800      -4.00000000       110.502693      -1.57079828    
   4.82962894       1.29409504      -4.00000000       110.502693      -1.57079828    
   4.82962894       1.29409504      -5.00000000       110.502693      -1.57079828    
   4.57987785       1.89704800      -4.00000000       110.587883      -1.57079864    
   4.57987785       1.89704800      -3.00000000       110.587883      -1.57079864    
   4.82962894       1.29409504      -3.00000000       110.587883      -1.57079864    
   4.82962894       1.29409504      -4.00000000       110.587883      -1.57079864    
   4.57987785       1.89704800      -3.00000000       110.554268      -1.57079852    
   4.57987785       1.89704800      -2.00000000       110.554268      -1.57079852    
   4.82962894       1.29409504      -2.00000000       110.554268      -1.57079852    
   4.82962894       1.29409504      -3.00000000       110.554268      -1.57079852    
   4.57987785       1.89704800      -2.00000000       110.569778      -1.57079947    
   4.57987785       1.89704800      -1.00000000       110.569778      -1.57079947    
   4.82962894       1.29409504      -1.00000000       110.569778      -1.57079947    
   4.82962894       1.29409504      -2.00000000       110.569778      -1.57079947    
   4.57987785       1.89704800      -1.00000000       110.143089      -1.57080030    
   4.57987785       1.89704800       0.00000000       110.143089      -1.57080030    
   4.82962894       1.29409504       0.00000000       110.143089      -1.57080030    
   4.82962894       1.29409504      -1.00000000       110.143089      -1.57080030    
   3.53553391       3.53553391      -10.0000000       108.063164       1.57079566    
   3.53553391       3.53553391      -9.00000000       108.063164       1.57079566    
   3.93283010       3.01776695      -9.00000000       108.063164       1.57079566    
   3.93283010       3.01776695      -10.0000000       108.063164       1.57079566    
   3.53553391       3.53553391      -9.00000000       110.512192       1.57079518    
   3.53553391       3.53553391      -8.00000000       110.512192       1.57079518    
   3.93283010       3.01776695      -8.00000000       110.512192       1.57079518    
   3.93283010       3.01776695      -9.00000000       110.512192       1.57079518    
   3.53553391       3.53553391      -8.00000000       110.525696       1.57079494    
   3.53553391       3.53553391      -7.00000000       110.525696       1.57079494    
   3.93283010       3.01776695      -7.00000000       110.525696       1.57079494    
   3.93283010       3.01776695      -8.00000000       110.525696       1.57079494    
   3.53553391       3.53553391      -7.00000000       110.543633       1.57079494    
   3.53553391       3.53553391      -6.00000000       110.543633       1.57079494    
   3.93283010       3.01776695      -6.00000000       110.543633       1.57079494    
   3.93283010       3.01776695      -7.00000000       110.543633       1.57079494    
   3.53553391       3.53553391      -6.00000000       110.502098       1.57079422    
   3.53553391       3.53553391      -5.00000000       110.502098       1.57079422    
   3.93283010       3.01776695      -5.00000000       110.502098       1.57079422    
   3.93283010       3.01776695      -6.00000000       110.502098       1.57079422    
   3.53553391       3.53553391      -5.00000000       110.502014       1.57079351    
   3.53553391       3.53553391      -4.00000000       110.502014       1.57079351    
   3.93283010       3.01776695      -4.00000000       110.502014       1.57079351    
   3.93283010       3.01776695      -5.00000000       110.502014       1.57079351    
   3.53553391       3.53553391      -4.00000000       110.587082       1.57079303    
   3.53553391       3.53553391      -3.00000000       110.587082       1.57079303    
   3.93283010       3.01776695      -3.00000000       110.587082       1.57079303    
   3.93283010       3.01776695      -4.00000000       110.587082       1.57079303    
   3.53553391       3.53553391      -3.00000000       110.553345       1.57079268    
   3.53553391       3.53553391      -2.00000000       110.553345       1.57079268    
   3.93283010       3.01776695      -2.00000000       110.553345       1.57079268    
   3.93283010       3.01776695      -3.00000000       110.553345       1.57079268    
   3.53553391       3.53553391      -2.00000000       110.569031       1.57079244    
   3.53553391       3.53553391      -1.00000000       110.569031       1.57079244    
   3.93283010       3.01776695      -1.00000000       110.569031       1.57079244    
   3.93283010       3.01776695      -2.00000000       110.569031       1.57079244    
   3.53553391       3.53553391      -1.00000000       110.142143       1.57079148    
   3.53553391       3.53553391       0.00000000       110.142143       1.57079148    
   3.93283010       3.01776695       0.00000000       110.142143       1.57079148    
   3.93283010       3.01776695      -1.00000000       110.142143       1.57079148    
   3.93283010       3.01776695      -10.0000000       108.062469      -1.57079697    
   3.93283010       3.01776695      -9.00000000       108.062469      -1.57079697    
   4.33012676       2.50000000      -9.00000000       108.062469      -1.57079697    
   4.33012676       2.50000000      -10.0000000       108.062469      -1.57079697    
   3.93283010       3.01776695      -9.00000000       110.511490      -1.57079720    
   3.93283010       3.01776695      -8.00000000       110.511490      -1.57079720    
   4.33012676       2.50000000      -8.00000000       110.511490      -1.57079720    
   4.33012676       2.50000000      -9.00000000       110.511490      -1.57079720    
   3.93283010       3.01776695      -8.00000000       110.525169      -1.57079756    
   3.93283010       3.01776695      -7.00000000       110.525169      -1.57079756    
   4.33012676       2.50000000      -7.00000000       110.525169      -1.57079756    
   4.33012676       2.50000000      -8.00000000       110.525169      -1.57079756    
   3.93283010       3.01776695      -7.00000000       110.543358      -1.57079732    
   3.93283010       3.01776695      -6.00000000       110.543358      -1.57079732    
   4.33012676       2.50000000      -6.00000000       110.543358      -1.57079732    
   4.33012676       2.50000000      -7.00000000       110.543358      -1.57079732    
   3.93283010       3.01776695      -6.00000000       110.501396      -1.57079792    
   3.93283010       3.01776695      -5.00000000       110.501396      -1.57079792    
   4.33012676       2.50000000      -5.00000000       110.501396      -1.57079792    
   4.33012676       2.50000000      -6.00000000       110.501396      -1.57079792    
   3.93283010       3.01776695      -5.00000000       110.501663      -1.57079840    
   3.93283010       3.01776695      -4.00000000       110.501663      -1.57079840    
   4.33012676       2.50000000      -4.00000000       110.501663      -1.57079840    
   4.33012676       2.50000000      -5.00000000       110.501663      -1.57079840    
   3.93283010       3.01776695      -4.00000000       110.586739      -1.57079887    
   3.93283010       3.01776695      -3.00000000       110.586739      -1.57079887    
   4.33012676       2.50000000      -3.00000000       110.586739      -1.57079887    
   4.33012676       2.50000000      -4.00000000       110.586739      -1.57079887    
   3.93283010       3.01776695      -3.00000000       110.553322      -1.57079911    
   3.93283010       3.01776695      -2.00000000       110.553322      -1.57079911    
   4.33012676       2.50000000      -2.00000000       110.553322      -1.57079911    
   4.33012676       2.50000000      -3.00000000       110.553322      -1.57079911    
   3.93283010       3.01776695      -2.00000000       110.568642      -1.57079887    
   3.93283010       3.01776695      -1.00000000       110.568642      -1.57079887    
   4.33012676       2.50000000      -1.00000000       110.568642      -1.57079887    
   4.33012676       2.50000000      -2.00000000       110.568642      -1.57079887    
   3.93283010       3.01776695      -1.00000000       110.141571      -1.57080030    
   3.93283010       3.01776695       0.00000000       110.141571      -1.57080030    
   4.33012676       2.50000000       0.00000000       110.141571      -1.57080030    
   4.33012676       2.50000000      -1.00000000       110.141571      -1.57080030    
   2.50000000       4.33012676      -10.0000000       108.062309       1.57079554    
   2.50000000       4.33012676      -9.00000000       108.062309       1.57079554    
   3.01776695       3.93283010      -9.00000000       108.062309       1.57079554    
   3.01776695       3.93283010      -10.0000000       108.062309       1.57079554    
   2.50000000       4.33012676      -9.00000000       110.511551       1.57079542    
   2.50000000       4.33012676      -8.00000000       110.511551       1.57079542    
   3.01776695       3.93283010      -8.00000000       110.511551       1.57079542    
   3.01776695       3.93283010      -9.00000000       110.511551       1.57079542    
   2.50000000       4.33012676      -8.00000000       110.525101       1.57079458    
   2.50000000       4.33012676      -7.00000000       110.525101       1.57079458    
   3.01776695       3.93283010      -7.00000000       110.525101       1.57079458    
   3.01776695       3.93283010      -8.00000000       110.525101       1.57079458    
   2.50000000       4.33012676      -7.00000000       110.543343       1.57079458    
   2.50000000       4.33012676      -6.00000000       110.543343       1.57079458    
   3.01776695       3.93283010      -6.00000000       110.543343       1.57079458    
   3.01776695       3.93283010      -7.00000000       110.543343       1.57079458    
   2.50000000       4.33012676      -6.00000000       110.501266       1.57079387    
   2.50000000       4.33012676      -5.00000000       110.501266       1.57079387    
   3.01776695       3.93283010      -5.00000000       110.501266       1.57079387    
   3.01776695       3.93283010      -6.00000000       110.501266       1.57079387    
   2.50000000       4.33012676      -5.00000000       110.501282       1.57079363    
   2.50000000       4.33012676      -4.00000000       110.501282       1.57079363    
   3.01776695       3.93283010      -4.00000000       110.501282       1.57079363    
   3.01776695       3.93283010      -5.00000000       110.501282       1.57079363    
   2.50000000       4.33012676      -4.00000000       110.586693       1.57079315    
   2.50000000       4.33012676      -3.00000000       110.586693       1.57079315    
   3.01776695       3.93283010      -3.00000000       110.586693       1.57079315    
   3.01776695       3.93283010      -4.00000000       110.586693       1.57079315    
   2.50000000       4.33012676      -3.00000000       110.552986       1.57079256    
   2.50000000       4.33012676      -2.00000000       110.552986       1.57079256    
   3.01776695       3.93283010      -2.00000000       110.552986       1.57079256    
   3.01776695       3.93283010      -3.00000000       110.552986       1.57079256    
   2.50000000       4.33012676      -2.00000000       110.567795       1.57079208    
   2.50000000       4.33012676      -1.00000000       110.567795       1.57079208    
   3.01776695       3.93283010      -1.00000000       110.567795       1.57079208    
   3.01776695       3.93283010      -2.00000000       110.567795       1.57079208    
   2.50000000       4.33012676      -1.00000000       110.141495       1.57079136    
   2.50000000       4.33012676       0.00000000       110.141495       1.57079136    
   3.01776695       3.93283010       0.00000000       110.141495       1.57079136    
   3.01776695       3.93283010      -1.00000000       110.141495       1.57079136    
   3.01776695       3.93283010      -10.0000000       108.063179      -1.57079685    
   3.01776695       3.93283010      -9.00000000       108.063179      -1.57079685    
   3.53553391       3.53553391      -9.00000000       108.063179      -1.57079685    
   3.53553391       3.53553391      -10.0000000       108.063179      -1.57079685    
   3.01776695       3.93283010      -9.00000000       110.511971      -1.57079697    
   3.01776695       3.93283010      -8.00000000       110.511971      -1.57079697    
   3.53553391       3.53553391      -8.00000000       110.511971      -1.57079697    
   3.53553391       3.53553391      -9.00000000       110.511971      -1.57079697    
   3.01776695       3.93283010      -8.00000000       110.525848      -1.57079720    
   3.01776695       3.93283010      -7.00000000       110.525848      -1.57079720    
   3.53553391       3.53553391      -7.00000000       110.525848      -1.57079720    
   3.53553391       3.53553391      -8.00000000       110.525848      -1.57079720    
   3.01776695       3.93283010      -7.00000000       110.543968      -1.57079732    
   3.01776695       3.93283010      -6.00000000       110.543968      -1.57079732    
   3.53553391       3.53553391      -6.00000000       110.543968      -1.57079732    
   3.53553391       3.53553391      -7.00000000       110.543968      -1.57079732    
   3.01776695       3.93283010      -6.00000000       110.502312      -1.57079768    
   3.01776695       3.93283010      -5.00000000       110.502312      -1.57079768    
   3.53553391       3.53553391      -5.00000000       110.502312      -1.57079768    
   3.53553391       3.53553391      -6.00000000       110.502312      -1.57079768    
   3.01776695       3.93283010      -5.00000000       110.502220      -1.57079828    
   3.01776695       3.93283010      -4.00000000       110.502220      -1.57079828    
   3.53553391       3.53553391      -4.00000000       110.502220      -1.57079828    
   3.53553391       3.53553391      -5.00000000       110.502220      -1.57079828    
   3.01776695       3.93283010      -4.00000000       110.587570      -1.57079899    
   3.01776695       3.93283010      -3.00000000       110.587570      -1.57079899    
   3.53553391       3.53553391      -3.00000000       110.587570      -1.57079899    
   3.53553391       3.53553391      -4.00000000       110.587570      -1.57079899    
   3.01776695       3.93283010      -3.00000000       110.554329      -1.57079899    
   3.01776695       3.93283010      -2.00000000       110.554329      -1.57079899    
   3.53553391       3.53553391      -2.00000000       110.554329      -1.57079899    
   3.53553391       3.53553391      -3.00000000       110.554329      -1.57079899    
   3.01776695       3.93283010      -2.00000000       110.569527      -1.57079923    
   3.01776695       3.93283010      -1.00000000       110.569527      -1.57079923    
   3.53553391       3.53553391      -1.00000000       110.569527      -1.57079923    
   3.53553391       3.53553391      -2.00000000       110.569527      -1.57079923    
   3.01776695       3.93283010      -1.00000000       110.142685      -1.57079971    
   3.01776695       3.93283010       0.00000000       110.142685      -1.57079971    
   3.53553391       3.53553391       0.00000000       110.142685      -1.57079971    
   3.53553391       3.53553391      -1.00000000       110.142685      -1.57079971    
   1.29409504       4.82962894      -10.0000000       108.063316       1.57079554    
   1.29409504       4.82962894      -9.00000000       108.063316       1.57079554    
   1.89704800       4.57987785      -9.00000000       108.063316       1.57079554    
   1.89704800       4.57987785      -10.0000000       108.063316       1.57079554    
   1.29409504       4.82962894      -9.00000000       110.512741       1.57079530    
   1.29409504       4.82962894      -8.00000000       110.512741       1.57079530    
   1.89704800       4.57987785      -8.00000000       110.512741       1.57079530    
   1.89704800       4.57987785      -9.00000000       110.512741       1.57079530    
   1.29409504       4.82962894      -8.00000000       110.526054       1.57079482    
   1.29409504       4.82962894      -7.00000000       110.526054       1.57079482    
   1.89704800       4.57987785      -7.00000000       110.526054       1.57079482    
   1.89704800       4.57987785      -8.00000000       110.526054       1.57079482    
   1.29409504       4.82962894      -7.00000000       110.544250       1.57079470    
   1.29409504       4.82962894      -6.00000000       110.544250       1.57079470    
   1.89704800       4.57987785      -6.00000000       110.544250       1.57079470    
   1.89704800       4.57987785      -7.00000000       110.544250       1.57079470    
   1.29409504       4.82962894      -6.00000000       110.502663       1.57079458    
   1.29409504       4.82962894      -5.00000000       110.502663       1.57079458    
   1.89704800       4.57987785      -5.00000000       110.502663       1.57079458    
   1.89704800       4.57987785      -6.00000000       110.502663       1.57079458    
   1.29409504       4.82962894      -5.00000000       110.502464       1.57079363    
   1.29409504       4.82962894      -4.00000000       110.502464       1.57079363    
   1.89704800       4.57987785      -4.00000000       110.502464       1.57079363    
   1.89704800       4.57987785      -5.00000000       110.502464       1.57079363    
   1.29409504       4.82962894      -4.00000000       110.587677       1.57079315    
   1.29409504       4.82962894      -3.00000000       110.587677       1.57079315    
   1.89704800       4.57987785      -3.00000000       110.587677       1.57079315    