 VARIABLES="X" "Y" "Z" "abs(p) (Pa)" "angle(p) (rad)"
ZONE N=   1080,E =     600, F=FEPOINT, ET=QUADRILATERAL
   4.82962894       1.29409504      -10.0000000       1058.82385       2.69929790    
   4.82962894       1.29409504      -9.00000000       1058.82385       2.69929790    
   4.91481400      0.647047520      -9.00000000       1058.82385       2.69929790    
   4.91481400      0.647047520      -10.0000000       1058.82385       2.69929790    
   4.82962894       1.29409504      -9.00000000       1360.07434       2.68460107    
   4.82962894       1.29409504      -8.00000000       1360.07434       2.68460107    
   4.91481400      0.647047520      -8.00000000       1360.07434       2.68460107    
   4.91481400      0.647047520      -9.00000000       1360.07434       2.68460107    
   4.82962894       1.29409504      -8.00000000       1821.47180       2.51739454    
   4.82962894       1.29409504      -7.00000000       1821.47180       2.51739454    
   4.91481400      0.647047520      -7.00000000       1821.47180       2.51739454    
   4.91481400      0.647047520      -8.00000000       1821.47180       2.51739454    
   4.82962894       1.29409504      -7.00000000       2429.63525       2.38016248    
   4.82962894       1.29409504      -6.00000000       2429.63525       2.38016248    
   4.91481400      0.647047520      -6.00000000       2429.63525       2.38016248    
   4.91481400      0.647047520      -7.00000000       2429.63525       2.38016248    
   4.82962894       1.29409504      -6.00000000       3160.44604       2.28684282    
   4.82962894       1.29409504      -5.00000000       3160.44604       2.28684282    
   4.91481400      0.647047520      -5.00000000       3160.44604       2.28684282    
   4.91481400      0.647047520      -6.00000000       3160.44604       2.28684282    
   4.82962894       1.29409504      -5.00000000       3991.74487       2.22696161    
   4.82962894       1.29409504      -4.00000000       3991.74487       2.22696161    
   4.91481400      0.647047520      -4.00000000       3991.74487       2.22696161    
   4.91481400      0.647047520      -5.00000000       3991.74487       2.22696161    
   4.82962894       1.29409504      -4.00000000       4910.72803       2.19003797    
   4.82962894       1.29409504      -3.00000000       4910.72803       2.19003797    
   4.91481400      0.647047520      -3.00000000       4910.72803       2.19003797    
   4.91481400      0.647047520      -4.00000000       4910.72803       2.19003797    
   4.82962894       1.29409504      -3.00000000       5914.98242       2.16859818    
   4.82962894       1.29409504      -2.00000000       5914.98242       2.16859818    
   4.91481400      0.647047520      -2.00000000       5914.98242       2.16859818    
   4.91481400      0.647047520      -3.00000000       5914.98242       2.16859818    
   4.82962894       1.29409504      -2.00000000       7010.72803       2.15779495    
   4.82962894       1.29409504      -1.00000000       7010.72803       2.15779495    
   4.91481400      0.647047520      -1.00000000       7010.72803       2.15779495    
   4.91481400      0.647047520      -2.00000000       7010.72803       2.15779495    
   4.82962894       1.29409504      -1.00000000       8209.44336       2.15438271    
   4.82962894       1.29409504       0.00000000       8209.44336       2.15438271    
   4.91481400      0.647047520       0.00000000       8209.44336       2.15438271    
   4.91481400      0.647047520      -1.00000000       8209.44336       2.15438271    
   4.91481400      0.647047520      -10.0000000       358.113831       2.80994463    
   4.91481400      0.647047520      -9.00000000       358.113831       2.80994463    
   5.00000000       0.00000000      -9.00000000       358.113831       2.80994463    
   5.00000000       0.00000000      -10.0000000       358.113831       2.80994463    
   4.91481400      0.647047520      -9.00000000       472.758636       2.73081970    
   4.91481400      0.647047520      -8.00000000       472.758636       2.73081970    
   5.00000000       0.00000000      -8.00000000       472.758636       2.73081970    
   5.00000000       0.00000000      -9.00000000       472.758636       2.73081970    
   4.91481400      0.647047520      -8.00000000       647.582703       2.51617432    
   4.91481400      0.647047520      -7.00000000       647.582703       2.51617432    
   5.00000000       0.00000000      -7.00000000       647.582703       2.51617432    
   5.00000000       0.00000000      -8.00000000       647.582703       2.51617432    
   4.91481400      0.647047520      -7.00000000       881.616638       2.35846639    
   4.91481400      0.647047520      -6.00000000       881.616638       2.35846639    
   5.00000000       0.00000000      -6.00000000       881.616638       2.35846639    
   5.00000000       0.00000000      -7.00000000       881.616638       2.35846639    
   4.91481400      0.647047520      -6.00000000       1162.73682       2.25736785    
   4.91481400      0.647047520      -5.00000000       1162.73682       2.25736785    
   5.00000000       0.00000000      -5.00000000       1162.73682       2.25736785    
   5.00000000       0.00000000      -6.00000000       1162.73682       2.25736785    
   4.91481400      0.647047520      -5.00000000       1480.71545       2.19488120    
   4.91481400      0.647047520      -4.00000000       1480.71545       2.19488120    
   5.00000000       0.00000000      -4.00000000       1480.71545       2.19488120    
   5.00000000       0.00000000      -5.00000000       1480.71545       2.19488120    
   4.91481400      0.647047520      -4.00000000       1830.63135       2.15704441    
   4.91481400      0.647047520      -3.00000000       1830.63135       2.15704441    
   5.00000000       0.00000000      -3.00000000       1830.63135       2.15704441    
   5.00000000       0.00000000      -4.00000000       1830.63135       2.15704441    
   4.91481400      0.647047520      -3.00000000       2210.29785       2.13550878    
   4.91481400      0.647047520      -2.00000000       2210.29785       2.13550878    
   5.00000000       0.00000000      -2.00000000       2210.29785       2.13550878    
   5.00000000       0.00000000      -3.00000000       2210.29785       2.13550878    
   4.91481400      0.647047520      -2.00000000       2622.21851       2.12486887    
   4.91481400      0.647047520      -1.00000000       2622.21851       2.12486887    
   5.00000000       0.00000000      -1.00000000       2622.21851       2.12486887    
   5.00000000       0.00000000      -2.00000000       2622.21851       2.12486887    
   4.91481400      0.647047520      -1.00000000       3067.84839       2.12194777    
   4.91481400      0.647047520       0.00000000       3067.84839       2.12194777    
   5.00000000       0.00000000       0.00000000       3067.84839       2.12194777    
   5.00000000       0.00000000      -1.00000000       3067.84839       2.12194777    
   4.33012676       2.50000000      -10.0000000       2401.74121       2.71575975    
   4.33012676       2.50000000      -9.00000000       2401.74121       2.71575975    
   4.57987785       1.89704800      -9.00000000       2401.74121       2.71575975    
   4.57987785       1.89704800      -10.0000000       2401.74121       2.71575975    
   4.33012676       2.50000000      -9.00000000       3099.79004       2.69164753    
   4.33012676       2.50000000      -8.00000000       3099.79004       2.69164753    
   4.57987785       1.89704800      -8.00000000       3099.79004       2.69164753    
   4.57987785       1.89704800      -9.00000000       3099.79004       2.69164753    
   4.33012676       2.50000000      -8.00000000       4166.38818       2.51720428    
   4.33012676       2.50000000      -7.00000000       4166.38818       2.51720428    
   4.57987785       1.89704800      -7.00000000       4166.38818       2.51720428    
   4.57987785       1.89704800      -8.00000000       4166.38818       2.51720428    
   4.33012676       2.50000000      -7.00000000       5575.13574       2.37673306    
   4.33012676       2.50000000      -6.00000000       5575.13574       2.37673306    
   4.57987785       1.89704800      -6.00000000       5575.13574       2.37673306    
   4.57987785       1.89704800      -7.00000000       5575.13574       2.37673306    
   4.33012676       2.50000000      -6.00000000       7267.83252       2.28212786    
   4.33012676       2.50000000      -5.00000000       7267.83252       2.28212786    
   4.57987785       1.89704800      -5.00000000       7267.83252       2.28212786    
   4.57987785       1.89704800      -6.00000000       7267.83252       2.28212786    
   4.33012676       2.50000000      -5.00000000       9191.53320       2.22179270    
   4.33012676       2.50000000      -4.00000000       9191.53320       2.22179270    
   4.57987785       1.89704800      -4.00000000       9191.53320       2.22179270    
   4.57987785       1.89704800      -5.00000000       9191.53320       2.22179270    
   4.33012676       2.50000000      -4.00000000       11316.5918       2.18470144    
   4.33012676       2.50000000      -3.00000000       11316.5918       2.18470144    
   4.57987785       1.89704800      -3.00000000       11316.5918       2.18470144    
   4.57987785       1.89704800      -4.00000000       11316.5918       2.18470144    
   4.33012676       2.50000000      -3.00000000       13636.1465       2.16323519    
   4.33012676       2.50000000      -2.00000000       13636.1465       2.16323519    
   4.57987785       1.89704800      -2.00000000       13636.1465       2.16323519    
   4.57987785       1.89704800      -3.00000000       13636.1465       2.16323519    
   4.33012676       2.50000000      -2.00000000       16164.6963       2.15245295    
   4.33012676       2.50000000      -1.00000000       16164.6963       2.15245295    
   4.57987785       1.89704800      -1.00000000       16164.6963       2.15245295    
   4.57987785       1.89704800      -2.00000000       16164.6963       2.15245295    
   4.33012676       2.50000000      -1.00000000       18925.9199       2.14912629    
   4.33012676       2.50000000       0.00000000       18925.9199       2.14912629    
   4.57987785       1.89704800       0.00000000       18925.9199       2.14912629    
   4.57987785       1.89704800      -1.00000000       18925.9199       2.14912629    
   4.57987785       1.89704800      -10.0000000       1748.08911       2.74300599    
   4.57987785       1.89704800      -9.00000000       1748.08911       2.74300599    
   4.82962894       1.29409504      -9.00000000       1748.08911       2.74300599    
   4.82962894       1.29409504      -10.0000000       1748.08911       2.74300599    
   4.57987785       1.89704800      -9.00000000       2272.78931       2.70316672    
   4.57987785       1.89704800      -8.00000000       2272.78931       2.70316672    
   4.82962894       1.29409504      -8.00000000       2272.78931       2.70316672    
   4.82962894       1.29409504      -9.00000000       2272.78931       2.70316672    
   4.57987785       1.89704800      -8.00000000       3072.49561       2.51689744    
   4.57987785       1.89704800      -7.00000000       3072.49561       2.51689744    
   4.82962894       1.29409504      -7.00000000       3072.49561       2.51689744    
   4.82962894       1.29409504      -8.00000000       3072.49561       2.51689744    
   4.57987785       1.89704800      -7.00000000       4132.53662       2.37121820    
   4.57987785       1.89704800      -6.00000000       4132.53662       2.37121820    
   4.82962894       1.29409504      -6.00000000       4132.53662       2.37121820    
   4.82962894       1.29409504      -7.00000000       4132.53662       2.37121820    
   4.57987785       1.89704800      -6.00000000       5406.12061       2.27459812    
   4.57987785       1.89704800      -5.00000000       5406.12061       2.27459812    
   4.82962894       1.29409504      -5.00000000       5406.12061       2.27459812    
   4.82962894       1.29409504      -6.00000000       5406.12061       2.27459812    
   4.57987785       1.89704800      -5.00000000       6851.41357       2.21356893    
   4.57987785       1.89704800      -4.00000000       6851.41357       2.21356893    
   4.82962894       1.29409504      -4.00000000       6851.41357       2.21356893    
   4.82962894       1.29409504      -5.00000000       6851.41357       2.21356893    
   4.57987785       1.89704800      -4.00000000       8446.10938       2.17622447    
   4.57987785       1.89704800      -3.00000000       8446.10938       2.17622447    
   4.82962894       1.29409504      -3.00000000       8446.10938       2.17622447    
   4.82962894       1.29409504      -4.00000000       8446.10938       2.17622447    
   4.57987785       1.89704800      -3.00000000       10183.5752       2.15472674    
   4.57987785       1.89704800      -2.00000000       10183.5752       2.15472674    
   4.82962894       1.29409504      -2.00000000       10183.5752       2.15472674    
   4.82962894       1.29409504      -3.00000000       10183.5752       2.15472674    
   4.57987785       1.89704800      -2.00000000       12074.8564       2.14398217    
   4.57987785       1.89704800      -1.00000000       12074.8564       2.14398217    
   4.82962894       1.29409504      -1.00000000       12074.8564       2.14398217    
   4.82962894       1.29409504      -2.00000000       12074.8564       2.14398217    
   4.57987785       1.89704800      -1.00000000       14134.2559       2.14078426    
   4.57987785       1.89704800       0.00000000       14134.2559       2.14078426    
   4.82962894       1.29409504       0.00000000       14134.2559       2.14078426    
   4.82962894       1.29409504      -1.00000000       14134.2559       2.14078426    
   3.53553391       3.53553391      -10.0000000       3581.16699       2.72062802    
   3.53553391       3.53553391      -9.00000000       3581.16699       2.72062802    
   3.93283010       3.01776695      -9.00000000       3581.16699       2.72062802    
   3.93283010       3.01776695      -10.0000000       3581.16699       2.72062802    
   3.53553391       3.53553391      -9.00000000       4628.31055       2.69371891    
   3.53553391       3.53553391      -8.00000000       4628.31055       2.69371891    
   3.93283010       3.01776695      -8.00000000       4628.31055       2.69371891    
   3.93283010       3.01776695      -9.00000000       4628.31055       2.69371891    
   3.53553391       3.53553391      -8.00000000       6227.37451       2.51714945    
   3.53553391       3.53553391      -7.00000000       6227.37451       2.51714945    
   3.93283010       3.01776695      -7.00000000       6227.37451       2.51714945    
   3.93283010       3.01776695      -8.00000000       6227.37451       2.51714945    
   3.53553391       3.53553391      -7.00000000       8340.70703       2.37573242    
   3.53553391       3.53553391      -6.00000000       8340.70703       2.37573242    
   3.93283010       3.01776695      -6.00000000       8340.70703       2.37573242    
   3.93283010       3.01776695      -7.00000000       8340.70703       2.37573242    
   3.53553391       3.53553391      -6.00000000       10879.9727       2.28075743    
   3.53553391       3.53553391      -5.00000000       10879.9727       2.28075743    
   3.93283010       3.01776695      -5.00000000       10879.9727       2.28075743    
   3.93283010       3.01776695      -6.00000000       10879.9727       2.28075743    
   3.53553391       3.53553391      -5.00000000       13765.0088       2.22029471    
   3.53553391       3.53553391      -4.00000000       13765.0088       2.22029471    
   3.93283010       3.01776695      -4.00000000       13765.0088       2.22029471    
   3.93283010       3.01776695      -5.00000000       13765.0088       2.22029471    
   3.53553391       3.53553391      -4.00000000       16951.3359       2.18315530    
   3.53553391       3.53553391      -3.00000000       16951.3359       2.18315530    
   3.93283010       3.01776695      -3.00000000       16951.3359       2.18315530    
   3.93283010       3.01776695      -4.00000000       16951.3359       2.18315530    
   3.53553391       3.53553391      -3.00000000       20428.1309       2.16168237    
   3.53553391       3.53553391      -2.00000000       20428.1309       2.16168237    
   3.93283010       3.01776695      -2.00000000       20428.1309       2.16168237    
   3.93283010       3.01776695      -3.00000000       20428.1309       2.16168237    
   3.53553391       3.53553391      -2.00000000       24217.2012       2.15090656    
   3.53553391       3.53553391      -1.00000000       24217.2012       2.15090656    
   3.93283010       3.01776695      -1.00000000       24217.2012       2.15090656    
   3.93283010       3.01776695      -2.00000000       24217.2012       2.15090656    
   3.53553391       3.53553391      -1.00000000       28352.7852       2.14760399    
   3.53553391       3.53553391       0.00000000       28352.7852       2.14760399    
   3.93283010       3.01776695       0.00000000       28352.7852       2.14760399    
   3.93283010       3.01776695      -1.00000000       28352.7852       2.14760399    
   3.93283010       3.01776695      -10.0000000       3019.82788       2.73507833    
   3.93283010       3.01776695      -9.00000000       3019.82788       2.73507833    
   4.33012676       2.50000000      -9.00000000       3019.82788       2.73507833    
   4.33012676       2.50000000      -10.0000000       3019.82788       2.73507833    
   3.93283010       3.01776695      -9.00000000       3918.14087       2.69983220    
   3.93283010       3.01776695      -8.00000000       3918.14087       2.69983220    
   4.33012676       2.50000000      -8.00000000       3918.14087       2.69983220    
   4.33012676       2.50000000      -9.00000000       3918.14087       2.69983220    
   3.93283010       3.01776695      -8.00000000       5288.03076       2.51698637    
   3.93283010       3.01776695      -7.00000000       5288.03076       2.51698637    
   4.33012676       2.50000000      -7.00000000       5288.03076       2.51698637    
   4.33012676       2.50000000      -8.00000000       5288.03076       2.51698637    
   3.93283010       3.01776695      -7.00000000       7101.93018       2.37280416    
   3.93283010       3.01776695      -6.00000000       7101.93018       2.37280416    
   4.33012676       2.50000000      -6.00000000       7101.93018       2.37280416    
   4.33012676       2.50000000      -7.00000000       7101.93018       2.37280416    
   3.93283010       3.01776695      -6.00000000       9281.27148       2.27675557    
   3.93283010       3.01776695      -5.00000000       9281.27148       2.27675557    
   4.33012676       2.50000000      -5.00000000       9281.27148       2.27675557    
   4.33012676       2.50000000      -6.00000000       9281.27148       2.27675557    
   3.93283010       3.01776695      -5.00000000       11755.4883       2.21592283    
   3.93283010       3.01776695      -4.00000000       11755.4883       2.21592283    
   4.33012676       2.50000000      -4.00000000       11755.4883       2.21592283    
   4.33012676       2.50000000      -5.00000000       11755.4883       2.21592283    
   3.93283010       3.01776695      -4.00000000       14486.3955       2.17864847    
   3.93283010       3.01776695      -3.00000000       14486.3955       2.17864847    
   4.33012676       2.50000000      -3.00000000       14486.3955       2.17864847    
   4.33012676       2.50000000      -4.00000000       14486.3955       2.17864847    
   3.93283010       3.01776695      -3.00000000       17463.3379       2.15715814    
   3.93283010       3.01776695      -2.00000000       17463.3379       2.15715814    
   4.33012676       2.50000000      -2.00000000       17463.3379       2.15715814    
   4.33012676       2.50000000      -3.00000000       17463.3379       2.15715814    
   3.93283010       3.01776695      -2.00000000       20705.1621       2.14640260    
   3.93283010       3.01776695      -1.00000000       20705.1621       2.14640260    
   4.33012676       2.50000000      -1.00000000       20705.1621       2.14640260    
   4.33012676       2.50000000      -2.00000000       20705.1621       2.14640260    
   3.93283010       3.01776695      -1.00000000       24238.0469       2.14316773    
   3.93283010       3.01776695       0.00000000       24238.0469       2.14316773    
   4.33012676       2.50000000       0.00000000       24238.0469       2.14316773    
   4.33012676       2.50000000      -1.00000000       24238.0469       2.14316773    
   2.50000000       4.33012676      -10.0000000       4516.59424       2.72321653    
   2.50000000       4.33012676      -9.00000000       4516.59424       2.72321653    
   3.01776695       3.93283010      -9.00000000       4516.59424       2.72321653    
   3.01776695       3.93283010      -10.0000000       4516.59424       2.72321653    
   2.50000000       4.33012676      -9.00000000       5841.42676       2.69481707    
   2.50000000       4.33012676      -8.00000000       5841.42676       2.69481707    
   3.01776695       3.93283010      -8.00000000       5841.42676       2.69481707    
   3.01776695       3.93283010      -9.00000000       5841.42676       2.69481707    
   2.50000000       4.33012676      -8.00000000       7863.97998       2.51711941    
   2.50000000       4.33012676      -7.00000000       7863.97998       2.51711941    
   3.01776695       3.93283010      -7.00000000       7863.97998       2.51711941    
   3.01776695       3.93283010      -8.00000000       7863.97998       2.51711941    
   2.50000000       4.33012676      -7.00000000       10537.8770       2.37520289    
   2.50000000       4.33012676      -6.00000000       10537.8770       2.37520289    
   3.01776695       3.93283010      -6.00000000       10537.8770       2.37520289    
   3.01776695       3.93283010      -7.00000000       10537.8770       2.37520289    
   2.50000000       4.33012676      -6.00000000       13750.6641       2.28003383    
   2.50000000       4.33012676      -5.00000000       13750.6641       2.28003383    
   3.01776695       3.93283010      -5.00000000       13750.6641       2.28003383    
   3.01776695       3.93283010      -6.00000000       13750.6641       2.28003383    
   2.50000000       4.33012676      -5.00000000       17400.4297       2.21950364    
   2.50000000       4.33012676      -4.00000000       17400.4297       2.21950364    
   3.01776695       3.93283010      -4.00000000       17400.4297       2.21950364    
   3.01776695       3.93283010      -5.00000000       17400.4297       2.21950364    
   2.50000000       4.33012676      -4.00000000       21430.9004       2.18233871    
   2.50000000       4.33012676      -3.00000000       21430.9004       2.18233871    
   3.01776695       3.93283010      -3.00000000       21430.9004       2.18233871    
   3.01776695       3.93283010      -4.00000000       21430.9004       2.18233871    
   2.50000000       4.33012676      -3.00000000       25827.9922       2.16086316    
   2.50000000       4.33012676      -2.00000000       25827.9922       2.16086316    
   3.01776695       3.93283010      -2.00000000       25827.9922       2.16086316    
   3.01776695       3.93283010      -3.00000000       25827.9922       2.16086316    
   2.50000000       4.33012676      -2.00000000       30619.3945       2.15009093    
   2.50000000       4.33012676      -1.00000000       30619.3945       2.15009093    
   3.01776695       3.93283010      -1.00000000       30619.3945       2.15009093    
   3.01776695       3.93283010      -2.00000000       30619.3945       2.15009093    
   2.50000000       4.33012676      -1.00000000       35847.4844       2.14680052    
   2.50000000       4.33012676       0.00000000       35847.4844       2.14680052    
   3.01776695       3.93283010       0.00000000       35847.4844       2.14680052    
   3.01776695       3.93283010      -1.00000000       35847.4844       2.14680052    
   3.01776695       3.93283010      -10.0000000       4085.85327       2.73168302    
   3.01776695       3.93283010      -9.00000000       4085.85327       2.73168302    
   3.53553391       3.53553391      -9.00000000       4085.85327       2.73168302    
   3.53553391       3.53553391      -10.0000000       4085.85327       2.73168302    
   3.01776695       3.93283010      -9.00000000       5296.48145       2.69840050    
   3.01776695       3.93283010      -8.00000000       5296.48145       2.69840050    
   3.53553391       3.53553391      -8.00000000       5296.48145       2.69840050    
   3.53553391       3.53553391      -9.00000000       5296.48145       2.69840050    
   3.01776695       3.93283010      -8.00000000       7143.19336       2.51702428    
   3.01776695       3.93283010      -7.00000000       7143.19336       2.51702428    
   3.53553391       3.53553391      -7.00000000       7143.19336       2.51702428    
   3.53553391       3.53553391      -8.00000000       7143.19336       2.51702428    
   3.01776695       3.93283010      -7.00000000       9587.33691       2.37348700    
   3.01776695       3.93283010      -6.00000000       9587.33691       2.37348700    
   3.53553391       3.53553391      -6.00000000       9587.33691       2.37348700    
   3.53553391       3.53553391      -7.00000000       9587.33691       2.37348700    
   3.01776695       3.93283010      -6.00000000       12523.9375       2.27768755    
   3.01776695       3.93283010      -5.00000000       12523.9375       2.27768755    
   3.53553391       3.53553391      -5.00000000       12523.9375       2.27768755    
   3.53553391       3.53553391      -6.00000000       12523.9375       2.27768755    
   3.01776695       3.93283010      -5.00000000       15858.4668       2.21693945    
   3.01776695       3.93283010      -4.00000000       15858.4668       2.21693945    
   3.53553391       3.53553391      -4.00000000       15858.4668       2.21693945    
   3.53553391       3.53553391      -5.00000000       15858.4668       2.21693945    
   3.01776695       3.93283010      -4.00000000       19539.4805       2.17969680    
   3.01776695       3.93283010      -3.00000000       19539.4805       2.17969680    
   3.53553391       3.53553391      -3.00000000       19539.4805       2.17969680    
   3.53553391       3.53553391      -4.00000000       19539.4805       2.17969680    
   3.01776695       3.93283010      -3.00000000       23553.0273       2.15820956    
   3.01776695       3.93283010      -2.00000000       23553.0273       2.15820956    
   3.53553391       3.53553391      -2.00000000       23553.0273       2.15820956    
   3.53553391       3.53553391      -3.00000000       23553.0273       2.15820956    
   3.01776695       3.93283010      -2.00000000       27924.4922       2.14744973    
   3.01776695       3.93283010      -1.00000000       27924.4922       2.14744973    
   3.53553391       3.53553391      -1.00000000       27924.4922       2.14744973    
   3.53553391       3.53553391      -2.00000000       27924.4922       2.14744973    
   3.01776695       3.93283010      -1.00000000       32690.1387       2.14419961    
   3.01776695       3.93283010       0.00000000       32690.1387       2.14419961    
   3.53553391       3.53553391       0.00000000       32690.1387       2.14419961    
   3.53553391       3.53553391      -1.00000000       32690.1387       2.14419961    
   1.29409504       4.82962894      -10.0000000       5144.23291       2.72501922    
   1.29409504       4.82962894      -9.00000000       5144.23291       2.72501922    
   1.89704800       4.57987785      -9.00000000       5144.23291       2.72501922    
   1.89704800       4.57987785      -10.0000000       5144.23291       2.72501922    
   1.29409504       4.82962894      -9.00000000       6656.46436       2.69558120    
   1.29409504       4.82962894      -8.00000000       6656.46436       2.69558120    
   1.89704800       4.57987785      -8.00000000       6656.46436       2.69558120    
   1.89704800       4.57987785      -9.00000000       6656.46436       2.69558120    
   1.29409504       4.82962894      -8.00000000       8964.66113       2.51709938    
   1.29409504       4.82962894      -7.00000000       8964.66113       2.51709938    
   1.89704800       4.57987785      -7.00000000       8964.66113       2.51709938    
   1.89704800       4.57987785      -8.00000000       8964.66113       2.51709938    
   1.29409504       4.82962894      -7.00000000       12016.9258       2.37483644    
   1.29409504       4.82962894      -6.00000000       12016.9258       2.37483644    
   1.89704800       4.57987785      -6.00000000       12016.9258       2.37483644    
   1.89704800       4.57987785      -7.00000000       12016.9258       2.37483644    
   1.29409504       4.82962894      -6.00000000       15684.2842       2.27953219    
   1.29409504       4.82962894      -5.00000000       15684.2842       2.27953219    
   1.89704800       4.57987785      -5.00000000       15684.2842       2.27953219    
   1.89704800       4.57987785      -6.00000000       15684.2842       2.27953219    
   1.29409504       4.82962894      -5.00000000       19850.0586       2.21895432    
   1.29409504       4.82962894      -4.00000000       19850.0586       2.21895432    
   1.89704800       4.57987785      -4.00000000       19850.0586       2.21895432    
   1.89704800       4.57987785      -5.00000000       19850.0586       2.21895432    
   1.29409504       4.82962894      -4.00000000       24449.9883       2.18177366    
   1.29409504       4.82962894      -3.00000000       24449.9883       2.18177366    
   1.89704800       4.57987785      -3.00000000       24449.9883       2.18177366    