 VARIABLES="X" "Y" "Z" "abs(p) (Pa)" "angle(p) (rad)"
ZONE N=   1080,E =     600, F=FEPOINT, ET=QUADRILATERAL
   4.82962894       1.29409504      -10.0000000       1995.96411      -1.49722874    
   4.82962894       1.29409504      -9.00000000       1995.96411      -1.49722874    
   4.91481400      0.647047520      -9.00000000       1995.96411      -1.49722874    
   4.91481400      0.647047520      -10.0000000       1995.96411      -1.49722874    
   4.82962894       1.29409504      -9.00000000       2503.71899      -1.50338244    
   4.82962894       1.29409504      -8.00000000       2503.71899      -1.50338244    
   4.91481400      0.647047520      -8.00000000       2503.71899      -1.50338244    
   4.91481400      0.647047520      -9.00000000       2503.71899      -1.50338244    
   4.82962894       1.29409504      -8.00000000       2809.30493      -1.50472414    
   4.82962894       1.29409504      -7.00000000       2809.30493      -1.50472414    
   4.91481400      0.647047520      -7.00000000       2809.30493      -1.50472414    
   4.91481400      0.647047520      -8.00000000       2809.30493      -1.50472414    
   4.82962894       1.29409504      -7.00000000       3033.92261      -1.50461411    
   4.82962894       1.29409504      -6.00000000       3033.92261      -1.50461411    
   4.91481400      0.647047520      -6.00000000       3033.92261      -1.50461411    
   4.91481400      0.647047520      -7.00000000       3033.92261      -1.50461411    
   4.82962894       1.29409504      -6.00000000       3214.74097      -1.50382745    
   4.82962894       1.29409504      -5.00000000       3214.74097      -1.50382745    
   4.91481400      0.647047520      -5.00000000       3214.74097      -1.50382745    
   4.91481400      0.647047520      -6.00000000       3214.74097      -1.50382745    
   4.82962894       1.29409504      -5.00000000       3370.83179      -1.50269270    
   4.82962894       1.29409504      -4.00000000       3370.83179      -1.50269270    
   4.91481400      0.647047520      -4.00000000       3370.83179      -1.50269270    
   4.91481400      0.647047520      -5.00000000       3370.83179      -1.50269270    
   4.82962894       1.29409504      -4.00000000       3514.16455      -1.50139606    
   4.82962894       1.29409504      -3.00000000       3514.16455      -1.50139606    
   4.91481400      0.647047520      -3.00000000       3514.16455      -1.50139606    
   4.91481400      0.647047520      -4.00000000       3514.16455      -1.50139606    
   4.82962894       1.29409504      -3.00000000       3654.03735      -1.50008059    
   4.82962894       1.29409504      -2.00000000       3654.03735      -1.50008059    
   4.91481400      0.647047520      -2.00000000       3654.03735      -1.50008059    
   4.91481400      0.647047520      -3.00000000       3654.03735      -1.50008059    
   4.82962894       1.29409504      -2.00000000       3799.75366      -1.49889481    
   4.82962894       1.29409504      -1.00000000       3799.75366      -1.49889481    
   4.91481400      0.647047520      -1.00000000       3799.75366      -1.49889481    
   4.91481400      0.647047520      -2.00000000       3799.75366      -1.49889481    
   4.82962894       1.29409504      -1.00000000       3963.18872      -1.49804759    
   4.82962894       1.29409504       0.00000000       3963.18872      -1.49804759    
   4.91481400      0.647047520       0.00000000       3963.18872      -1.49804759    
   4.91481400      0.647047520      -1.00000000       3963.18872      -1.49804759    
   4.91481400      0.647047520      -10.0000000       2026.39124      -1.49712527    
   4.91481400      0.647047520      -9.00000000       2026.39124      -1.49712527    
   5.00000000       0.00000000      -9.00000000       2026.39124      -1.49712527    
   5.00000000       0.00000000      -10.0000000       2026.39124      -1.49712527    
   4.91481400      0.647047520      -9.00000000       2542.40210      -1.50330293    
   4.91481400      0.647047520      -8.00000000       2542.40210      -1.50330293    
   5.00000000       0.00000000      -8.00000000       2542.40210      -1.50330293    
   5.00000000       0.00000000      -9.00000000       2542.40210      -1.50330293    
   4.91481400      0.647047520      -8.00000000       2853.05322      -1.50465512    
   4.91481400      0.647047520      -7.00000000       2853.05322      -1.50465512    
   5.00000000       0.00000000      -7.00000000       2853.05322      -1.50465512    
   5.00000000       0.00000000      -8.00000000       2853.05322      -1.50465512    
   4.91481400      0.647047520      -7.00000000       3081.39502      -1.50454998    
   4.91481400      0.647047520      -6.00000000       3081.39502      -1.50454998    
   5.00000000       0.00000000      -6.00000000       3081.39502      -1.50454998    
   5.00000000       0.00000000      -7.00000000       3081.39502      -1.50454998    
   4.91481400      0.647047520      -6.00000000       3265.22241      -1.50376654    
   4.91481400      0.647047520      -5.00000000       3265.22241      -1.50376654    
   5.00000000       0.00000000      -5.00000000       3265.22241      -1.50376654    
   5.00000000       0.00000000      -6.00000000       3265.22241      -1.50376654    
   4.91481400      0.647047520      -5.00000000       3423.90405      -1.50263321    
   4.91481400      0.647047520      -4.00000000       3423.90405      -1.50263321    
   5.00000000       0.00000000      -4.00000000       3423.90405      -1.50263321    
   5.00000000       0.00000000      -5.00000000       3423.90405      -1.50263321    
   4.91481400      0.647047520      -4.00000000       3569.61328      -1.50133741    
   4.91481400      0.647047520      -3.00000000       3569.61328      -1.50133741    
   5.00000000       0.00000000      -3.00000000       3569.61328      -1.50133741    
   5.00000000       0.00000000      -4.00000000       3569.61328      -1.50133741    
   4.91481400      0.647047520      -3.00000000       3711.81299      -1.50002337    
   4.91481400      0.647047520      -2.00000000       3711.81299      -1.50002337    
   5.00000000       0.00000000      -2.00000000       3711.81299      -1.50002337    
   5.00000000       0.00000000      -3.00000000       3711.81299      -1.50002337    
   4.91481400      0.647047520      -2.00000000       3859.94897      -1.49883926    
   4.91481400      0.647047520      -1.00000000       3859.94897      -1.49883926    
   5.00000000       0.00000000      -1.00000000       3859.94897      -1.49883926    
   5.00000000       0.00000000      -2.00000000       3859.94897      -1.49883926    
   4.91481400      0.647047520      -1.00000000       4026.13257      -1.49799347    
   4.91481400      0.647047520       0.00000000       4026.13257      -1.49799347    
   5.00000000       0.00000000       0.00000000       4026.13257      -1.49799347    
   5.00000000       0.00000000      -1.00000000       4026.13257      -1.49799347    
   4.33012676       2.50000000      -10.0000000       1829.51831      -1.49734366    
   4.33012676       2.50000000      -9.00000000       1829.51831      -1.49734366    
   4.57987785       1.89704800      -9.00000000       1829.51831      -1.49734366    
   4.57987785       1.89704800      -10.0000000       1829.51831      -1.49734366    
   4.33012676       2.50000000      -9.00000000       2294.41113      -1.50346947    
   4.33012676       2.50000000      -8.00000000       2294.41113      -1.50346947    
   4.57987785       1.89704800      -8.00000000       2294.41113      -1.50346947    
   4.57987785       1.89704800      -9.00000000       2294.41113      -1.50346947    
   4.33012676       2.50000000      -8.00000000       2574.10376      -1.50480068    
   4.33012676       2.50000000      -7.00000000       2574.10376      -1.50480068    
   4.57987785       1.89704800      -7.00000000       2574.10376      -1.50480068    
   4.57987785       1.89704800      -8.00000000       2574.10376      -1.50480068    
   4.33012676       2.50000000      -7.00000000       2779.69116      -1.50468528    
   4.33012676       2.50000000      -6.00000000       2779.69116      -1.50468528    
   4.57987785       1.89704800      -6.00000000       2779.69116      -1.50468528    
   4.57987785       1.89704800      -7.00000000       2779.69116      -1.50468528    
   4.33012676       2.50000000      -6.00000000       2945.18335      -1.50389552    
   4.33012676       2.50000000      -5.00000000       2945.18335      -1.50389552    
   4.57987785       1.89704800      -5.00000000       2945.18335      -1.50389552    
   4.57987785       1.89704800      -6.00000000       2945.18335      -1.50389552    
   4.33012676       2.50000000      -5.00000000       3088.04785      -1.50275874    
   4.33012676       2.50000000      -4.00000000       3088.04785      -1.50275874    
   4.57987785       1.89704800      -4.00000000       3088.04785      -1.50275874    
   4.57987785       1.89704800      -5.00000000       3088.04785      -1.50275874    
   4.33012676       2.50000000      -4.00000000       3219.23120      -1.50146031    
   4.33012676       2.50000000      -3.00000000       3219.23120      -1.50146031    
   4.57987785       1.89704800      -3.00000000       3219.23120      -1.50146031    
   4.57987785       1.89704800      -4.00000000       3219.23120      -1.50146031    
   4.33012676       2.50000000      -3.00000000       3347.25000      -1.50014365    
   4.33012676       2.50000000      -2.00000000       3347.25000      -1.50014365    
   4.57987785       1.89704800      -2.00000000       3347.25000      -1.50014365    
   4.57987785       1.89704800      -3.00000000       3347.25000      -1.50014365    
   4.33012676       2.50000000      -2.00000000       3480.61279      -1.49895692    
   4.33012676       2.50000000      -1.00000000       3480.61279      -1.49895692    
   4.57987785       1.89704800      -1.00000000       3480.61279      -1.49895692    
   4.57987785       1.89704800      -2.00000000       3480.61279      -1.49895692    
   4.33012676       2.50000000      -1.00000000       3630.16187      -1.49810755    
   4.33012676       2.50000000       0.00000000       3630.16187      -1.49810755    
   4.57987785       1.89704800       0.00000000       3630.16187      -1.49810755    
   4.57987785       1.89704800      -1.00000000       3630.16187      -1.49810755    
   4.57987785       1.89704800      -10.0000000       1918.72290      -1.49701679    
   4.57987785       1.89704800      -9.00000000       1918.72290      -1.49701679    
   4.82962894       1.29409504      -9.00000000       1918.72290      -1.49701679    
   4.82962894       1.29409504      -10.0000000       1918.72290      -1.49701679    
   4.57987785       1.89704800      -9.00000000       2407.82593      -1.50322127    
   4.57987785       1.89704800      -8.00000000       2407.82593      -1.50322127    
   4.82962894       1.29409504      -8.00000000       2407.82593      -1.50322127    
   4.82962894       1.29409504      -9.00000000       2407.82593      -1.50322127    
   4.57987785       1.89704800      -8.00000000       2702.37207      -1.50458348    
   4.57987785       1.89704800      -7.00000000       2702.37207      -1.50458348    
   4.82962894       1.29409504      -7.00000000       2702.37207      -1.50458348    
   4.82962894       1.29409504      -8.00000000       2702.37207      -1.50458348    
   4.57987785       1.89704800      -7.00000000       2918.87866      -1.50448310    
   4.57987785       1.89704800      -6.00000000       2918.87866      -1.50448310    
   4.82962894       1.29409504      -6.00000000       2918.87866      -1.50448310    
   4.82962894       1.29409504      -7.00000000       2918.87866      -1.50448310    
   4.57987785       1.89704800      -6.00000000       3093.17969      -1.50370252    
   4.57987785       1.89704800      -5.00000000       3093.17969      -1.50370252    
   4.82962894       1.29409504      -5.00000000       3093.17969      -1.50370252    
   4.82962894       1.29409504      -6.00000000       3093.17969      -1.50370252    
   4.57987785       1.89704800      -5.00000000       3243.63940      -1.50257146    
   4.57987785       1.89704800      -4.00000000       3243.63940      -1.50257146    
   4.82962894       1.29409504      -4.00000000       3243.63940      -1.50257146    
   4.82962894       1.29409504      -5.00000000       3243.63940      -1.50257146    
   4.57987785       1.89704800      -4.00000000       3381.79883      -1.50127685    
   4.57987785       1.89704800      -3.00000000       3381.79883      -1.50127685    
   4.82962894       1.29409504      -3.00000000       3381.79883      -1.50127685    
   4.82962894       1.29409504      -4.00000000       3381.79883      -1.50127685    
   4.57987785       1.89704800      -3.00000000       3516.63428      -1.49996388    
   4.57987785       1.89704800      -2.00000000       3516.63428      -1.49996388    
   4.82962894       1.29409504      -2.00000000       3516.63428      -1.49996388    
   4.82962894       1.29409504      -3.00000000       3516.63428      -1.49996388    
   4.57987785       1.89704800      -2.00000000       3657.09473      -1.49878132    
   4.57987785       1.89704800      -1.00000000       3657.09473      -1.49878132    
   4.82962894       1.29409504      -1.00000000       3657.09473      -1.49878132    
   4.82962894       1.29409504      -2.00000000       3657.09473      -1.49878132    
   4.57987785       1.89704800      -1.00000000       3814.70361      -1.49793756    
   4.57987785       1.89704800       0.00000000       3814.70361      -1.49793756    
   4.82962894       1.29409504       0.00000000       3814.70361      -1.49793756    
   4.82962894       1.29409504      -1.00000000       3814.70361      -1.49793756    
   3.53553391       3.53553391      -10.0000000       1538.38916      -1.49749351    
   3.53553391       3.53553391      -9.00000000       1538.38916      -1.49749351    
   3.93283010       3.01776695      -9.00000000       1538.38916      -1.49749351    
   3.93283010       3.01776695      -10.0000000       1538.38916      -1.49749351    
   3.53553391       3.53553391      -9.00000000       1928.74402      -1.50358295    
   3.53553391       3.53553391      -8.00000000       1928.74402      -1.50358295    
   3.93283010       3.01776695      -8.00000000       1928.74402      -1.50358295    
   3.93283010       3.01776695      -9.00000000       1928.74402      -1.50358295    
   3.53553391       3.53553391      -8.00000000       2163.48291      -1.50490022    
   3.53553391       3.53553391      -7.00000000       2163.48291      -1.50490022    
   3.93283010       3.01776695      -7.00000000       2163.48291      -1.50490022    
   3.93283010       3.01776695      -8.00000000       2163.48291      -1.50490022    
   3.53553391       3.53553391      -7.00000000       2336.02954      -1.50477755    
   3.53553391       3.53553391      -6.00000000       2336.02954      -1.50477755    
   3.93283010       3.01776695      -6.00000000       2336.02954      -1.50477755    
   3.93283010       3.01776695      -7.00000000       2336.02954      -1.50477755    
   3.53553391       3.53553391      -6.00000000       2474.91504      -1.50398397    
   3.53553391       3.53553391      -5.00000000       2474.91504      -1.50398397    
   3.93283010       3.01776695      -5.00000000       2474.91504      -1.50398397    
   3.93283010       3.01776695      -6.00000000       2474.91504      -1.50398397    
   3.53553391       3.53553391      -5.00000000       2594.81665      -1.50284445    
   3.53553391       3.53553391      -4.00000000       2594.81665      -1.50284445    
   3.93283010       3.01776695      -4.00000000       2594.81665      -1.50284445    
   3.93283010       3.01776695      -5.00000000       2594.81665      -1.50284445    
   3.53553391       3.53553391      -4.00000000       2704.91260      -1.50154400    
   3.53553391       3.53553391      -3.00000000       2704.91260      -1.50154400    
   3.93283010       3.01776695      -3.00000000       2704.91260      -1.50154400    
   3.93283010       3.01776695      -4.00000000       2704.91260      -1.50154400    
   3.53553391       3.53553391      -3.00000000       2812.35034      -1.50022578    
   3.53553391       3.53553391      -2.00000000       2812.35034      -1.50022578    
   3.93283010       3.01776695      -2.00000000       2812.35034      -1.50022578    
   3.93283010       3.01776695      -3.00000000       2812.35034      -1.50022578    
   3.53553391       3.53553391      -2.00000000       2924.27271      -1.49903727    
   3.53553391       3.53553391      -1.00000000       2924.27271      -1.49903727    
   3.93283010       3.01776695      -1.00000000       2924.27271      -1.49903727    
   3.93283010       3.01776695      -2.00000000       2924.27271      -1.49903727    
   3.53553391       3.53553391      -1.00000000       3049.74463      -1.49818492    
   3.53553391       3.53553391       0.00000000       3049.74463      -1.49818492    
   3.93283010       3.01776695       0.00000000       3049.74463      -1.49818492    
   3.93283010       3.01776695      -1.00000000       3049.74463      -1.49818492    
   3.93283010       3.01776695      -10.0000000       1680.29651      -1.49688637    
   3.93283010       3.01776695      -9.00000000       1680.29651      -1.49688637    
   4.33012676       2.50000000      -9.00000000       1680.29651      -1.49688637    
   4.33012676       2.50000000      -10.0000000       1680.29651      -1.49688637    
   3.93283010       3.01776695      -9.00000000       2109.16016      -1.50312233    
   3.93283010       3.01776695      -8.00000000       2109.16016      -1.50312233    
   4.33012676       2.50000000      -8.00000000       2109.16016      -1.50312233    
   4.33012676       2.50000000      -9.00000000       2109.16016      -1.50312233    
   3.93283010       3.01776695      -8.00000000       2367.52808      -1.50449681    
   3.93283010       3.01776695      -7.00000000       2367.52808      -1.50449681    
   4.33012676       2.50000000      -7.00000000       2367.52808      -1.50449681    
   4.33012676       2.50000000      -8.00000000       2367.52808      -1.50449681    
   3.93283010       3.01776695      -7.00000000       2557.44409      -1.50440264    
   3.93283010       3.01776695      -6.00000000       2557.44409      -1.50440264    
   4.33012676       2.50000000      -6.00000000       2557.44409      -1.50440264    
   4.33012676       2.50000000      -7.00000000       2557.44409      -1.50440264    
   3.93283010       3.01776695      -6.00000000       2710.34448      -1.50362575    
   3.93283010       3.01776695      -5.00000000       2710.34448      -1.50362575    
   4.33012676       2.50000000      -5.00000000       2710.34448      -1.50362575    
   4.33012676       2.50000000      -6.00000000       2710.34448      -1.50362575    
   3.93283010       3.01776695      -5.00000000       2842.32739      -1.50249708    
   3.93283010       3.01776695      -4.00000000       2842.32739      -1.50249708    
   4.33012676       2.50000000      -4.00000000       2842.32739      -1.50249708    
   4.33012676       2.50000000      -5.00000000       2842.32739      -1.50249708    
   3.93283010       3.01776695      -4.00000000       2963.51880      -1.50120413    
   3.93283010       3.01776695      -3.00000000       2963.51880      -1.50120413    
   4.33012676       2.50000000      -3.00000000       2963.51880      -1.50120413    
   4.33012676       2.50000000      -4.00000000       2963.51880      -1.50120413    
   3.93283010       3.01776695      -3.00000000       3081.79980      -1.49989259    
   3.93283010       3.01776695      -2.00000000       3081.79980      -1.49989259    
   4.33012676       2.50000000      -2.00000000       3081.79980      -1.49989259    
   4.33012676       2.50000000      -3.00000000       3081.79980      -1.49989259    
   3.93283010       3.01776695      -2.00000000       3205.01489      -1.49871111    
   3.93283010       3.01776695      -1.00000000       3205.01489      -1.49871111    
   4.33012676       2.50000000      -1.00000000       3205.01489      -1.49871111    
   4.33012676       2.50000000      -2.00000000       3205.01489      -1.49871111    
   3.93283010       3.01776695      -1.00000000       3343.30493      -1.49787009    
   3.93283010       3.01776695       0.00000000       3343.30493      -1.49787009    
   4.33012676       2.50000000       0.00000000       3343.30493      -1.49787009    
   4.33012676       2.50000000      -1.00000000       3343.30493      -1.49787009    
   2.50000000       4.33012676      -10.0000000       1142.42603      -1.49773228    
   2.50000000       4.33012676      -9.00000000       1142.42603      -1.49773228    
   3.01776695       3.93283010      -9.00000000       1142.42603      -1.49773228    
   3.01776695       3.93283010      -10.0000000       1142.42603      -1.49773228    
   2.50000000       4.33012676      -9.00000000       1431.63647      -1.50376439    
   2.50000000       4.33012676      -8.00000000       1431.63647      -1.50376439    
   3.01776695       3.93283010      -8.00000000       1431.63647      -1.50376439    
   3.01776695       3.93283010      -9.00000000       1431.63647      -1.50376439    
   2.50000000       4.33012676      -8.00000000       1605.42590      -1.50505972    
   2.50000000       4.33012676      -7.00000000       1605.42590      -1.50505972    
   3.01776695       3.93283010      -7.00000000       1605.42590      -1.50505972    
   3.01776695       3.93283010      -8.00000000       1605.42590      -1.50505972    
   2.50000000       4.33012676      -7.00000000       1733.16968      -1.50492525    
   2.50000000       4.33012676      -6.00000000       1733.16968      -1.50492525    
   3.01776695       3.93283010      -6.00000000       1733.16968      -1.50492525    
   3.01776695       3.93283010      -7.00000000       1733.16968      -1.50492525    
   2.50000000       4.33012676      -6.00000000       1835.98547      -1.50412512    
   2.50000000       4.33012676      -5.00000000       1835.98547      -1.50412512    
   3.01776695       3.93283010      -5.00000000       1835.98547      -1.50412512    
   3.01776695       3.93283010      -6.00000000       1835.98547      -1.50412512    
   2.50000000       4.33012676      -5.00000000       1924.75122      -1.50298214    
   2.50000000       4.33012676      -4.00000000       1924.75122      -1.50298214    
   3.01776695       3.93283010      -4.00000000       1924.75122      -1.50298214    
   3.01776695       3.93283010      -5.00000000       1924.75122      -1.50298214    
   2.50000000       4.33012676      -4.00000000       2006.25903      -1.50167847    
   2.50000000       4.33012676      -3.00000000       2006.25903      -1.50167847    
   3.01776695       3.93283010      -3.00000000       2006.25903      -1.50167847    
   3.01776695       3.93283010      -4.00000000       2006.25903      -1.50167847    
   2.50000000       4.33012676      -3.00000000       2085.79126      -1.50035715    
   2.50000000       4.33012676      -2.00000000       2085.79126      -1.50035715    
   3.01776695       3.93283010      -2.00000000       2085.79126      -1.50035715    
   3.01776695       3.93283010      -3.00000000       2085.79126      -1.50035715    
   2.50000000       4.33012676      -2.00000000       2168.65015      -1.49916685    
   2.50000000       4.33012676      -1.00000000       2168.65015      -1.49916685    
   3.01776695       3.93283010      -1.00000000       2168.65015      -1.49916685    
   3.01776695       3.93283010      -2.00000000       2168.65015      -1.49916685    
   2.50000000       4.33012676      -1.00000000       2261.49023      -1.49831021    
   2.50000000       4.33012676       0.00000000       2261.49023      -1.49831021    
   3.01776695       3.93283010       0.00000000       2261.49023      -1.49831021    
   3.01776695       3.93283010      -1.00000000       2261.49023      -1.49831021    
   3.01776695       3.93283010      -10.0000000       1327.36047      -1.49669814    
   3.01776695       3.93283010      -9.00000000       1327.36047      -1.49669814    
   3.53553391       3.53553391      -9.00000000       1327.36047      -1.49669814    
   3.53553391       3.53553391      -10.0000000       1327.36047      -1.49669814    
   3.01776695       3.93283010      -9.00000000       1666.75586      -1.50297904    
   3.01776695       3.93283010      -8.00000000       1666.75586      -1.50297904    
   3.53553391       3.53553391      -8.00000000       1666.75586      -1.50297904    
   3.53553391       3.53553391      -9.00000000       1666.75586      -1.50297904    
   3.01776695       3.93283010      -8.00000000       1871.34155      -1.50437164    
   3.01776695       3.93283010      -7.00000000       1871.34155      -1.50437164    
   3.53553391       3.53553391      -7.00000000       1871.34155      -1.50437164    
   3.53553391       3.53553391      -8.00000000       1871.34155      -1.50437164    
   3.01776695       3.93283010      -7.00000000       2021.72400      -1.50428677    
   3.01776695       3.93283010      -6.00000000       2021.72400      -1.50428677    
   3.53553391       3.53553391      -6.00000000       2021.72400      -1.50428677    
   3.53553391       3.53553391      -7.00000000       2021.72400      -1.50428677    
   3.01776695       3.93283010      -6.00000000       2142.80469      -1.50351512    
   3.01776695       3.93283010      -5.00000000       2142.80469      -1.50351512    
   3.53553391       3.53553391      -5.00000000       2142.80469      -1.50351512    
   3.53553391       3.53553391      -6.00000000       2142.80469      -1.50351512    
   3.01776695       3.93283010      -5.00000000       2247.31567      -1.50238943    
   3.01776695       3.93283010      -4.00000000       2247.31567      -1.50238943    
   3.53553391       3.53553391      -4.00000000       2247.31567      -1.50238943    
   3.53553391       3.53553391      -5.00000000       2247.31567      -1.50238943    
   3.01776695       3.93283010      -4.00000000       2343.28271      -1.50109863    
   3.01776695       3.93283010      -3.00000000       2343.28271      -1.50109863    
   3.53553391       3.53553391      -3.00000000       2343.28271      -1.50109863    
   3.53553391       3.53553391      -4.00000000       2343.28271      -1.50109863    
   3.01776695       3.93283010      -3.00000000       2436.94727      -1.49978936    
   3.01776695       3.93283010      -2.00000000       2436.94727      -1.49978936    
   3.53553391       3.53553391      -2.00000000       2436.94727      -1.49978936    
   3.53553391       3.53553391      -3.00000000       2436.94727      -1.49978936    
   3.01776695       3.93283010      -2.00000000       2534.51709      -1.49861026    
   3.01776695       3.93283010      -1.00000000       2534.51709      -1.49861026    
   3.53553391       3.53553391      -1.00000000       2534.51709      -1.49861026    
   3.53553391       3.53553391      -2.00000000       2534.51709      -1.49861026    
   3.01776695       3.93283010      -1.00000000       2644.06934      -1.49777234    
   3.01776695       3.93283010       0.00000000       2644.06934      -1.49777234    
   3.53553391       3.53553391       0.00000000       2644.06934      -1.49777234    
   3.53553391       3.53553391      -1.00000000       2644.06934      -1.49777234    
   1.29409504       4.82962894      -10.0000000       668.604919      -1.49828196    
   1.29409504       4.82962894      -9.00000000       668.604919      -1.49828196    
   1.89704800       4.57987785      -9.00000000       668.604919      -1.49828196    
   1.89704800       4.57987785      -10.0000000       668.604919      -1.49828196    
   1.29409504       4.82962894      -9.00000000       836.964417      -1.50418329    
   1.29409504       4.82962894      -8.00000000       836.964417      -1.50418329    
   1.89704800       4.57987785      -8.00000000       836.964417      -1.50418329    
   1.89704800       4.57987785      -9.00000000       836.964417      -1.50418329    
   1.29409504       4.82962894      -8.00000000       937.961548      -1.50542700    
   1.29409504       4.82962894      -7.00000000       937.961548      -1.50542700    
   1.89704800       4.57987785      -7.00000000       937.961548      -1.50542700    
   1.89704800       4.57987785      -8.00000000       937.961548      -1.50542700    
   1.29409504       4.82962894      -7.00000000       1012.19666      -1.50526774    
   1.29409504       4.82962894      -6.00000000       1012.19666      -1.50526774    
   1.89704800       4.57987785      -6.00000000       1012.19666      -1.50526774    
   1.89704800       4.57987785      -7.00000000       1012.19666      -1.50526774    
   1.29409504       4.82962894      -6.00000000       1071.93616      -1.50445199    
   1.29409504       4.82962894      -5.00000000       1071.93616      -1.50445199    
   1.89704800       4.57987785      -5.00000000       1071.93616      -1.50445199    
   1.89704800       4.57987785      -6.00000000       1071.93616      -1.50445199    
   1.29409504       4.82962894      -5.00000000       1123.51672      -1.50329936    
   1.29409504       4.82962894      -4.00000000       1123.51672      -1.50329936    
   1.89704800       4.57987785      -4.00000000       1123.51672      -1.50329936    
   1.89704800       4.57987785      -5.00000000       1123.51672      -1.50329936    
   1.29409504       4.82962894      -4.00000000       1170.88245      -1.50198972    
   1.29409504       4.82962894      -3.00000000       1170.88245      -1.50198972    
   1.89704800       4.57987785      -3.00000000       1170.88245      -1.50198972    