 VARIABLES="X" "Y" "Z" "abs(p) (Pa)" "angle(p) (rad)"
ZONE N=   1080,E =     600, F=FEPOINT, ET=QUADRILATERAL
   4.82962894       1.29409504      -10.0000000       29.1167889       2.16866493    
   4.82962894       1.29409504      -9.00000000       29.1167889       2.16866493    
   4.91481400      0.647047520      -9.00000000       29.1167889       2.16866493    
   4.91481400      0.647047520      -10.0000000       29.1167889       2.16866493    
   4.82962894       1.29409504      -9.00000000       33.0683365       1.97792637    
   4.82962894       1.29409504      -8.00000000       33.0683365       1.97792637    
   4.91481400      0.647047520      -8.00000000       33.0683365       1.97792637    
   4.91481400      0.647047520      -9.00000000       33.0683365       1.97792637    
   4.82962894       1.29409504      -8.00000000       35.8394852       1.89916956    
   4.82962894       1.29409504      -7.00000000       35.8394852       1.89916956    
   4.91481400      0.647047520      -7.00000000       35.8394852       1.89916956    
   4.91481400      0.647047520      -8.00000000       35.8394852       1.89916956    
   4.82962894       1.29409504      -7.00000000       37.8369751       1.85471249    
   4.82962894       1.29409504      -6.00000000       37.8369751       1.85471249    
   4.91481400      0.647047520      -6.00000000       37.8369751       1.85471249    
   4.91481400      0.647047520      -7.00000000       37.8369751       1.85471249    
   4.82962894       1.29409504      -6.00000000       39.3087387       1.82660031    
   4.82962894       1.29409504      -5.00000000       39.3087387       1.82660031    
   4.91481400      0.647047520      -5.00000000       39.3087387       1.82660031    
   4.91481400      0.647047520      -6.00000000       39.3087387       1.82660031    
   4.82962894       1.29409504      -5.00000000       40.4029350       1.80794525    
   4.82962894       1.29409504      -4.00000000       40.4029350       1.80794525    
   4.91481400      0.647047520      -4.00000000       40.4029350       1.80794525    
   4.91481400      0.647047520      -5.00000000       40.4029350       1.80794525    
   4.82962894       1.29409504      -4.00000000       41.2110558       1.79510272    
   4.82962894       1.29409504      -3.00000000       41.2110558       1.79510272    
   4.91481400      0.647047520      -3.00000000       41.2110558       1.79510272    
   4.91481400      0.647047520      -4.00000000       41.2110558       1.79510272    
   4.82962894       1.29409504      -3.00000000       41.7857361       1.78639197    
   4.82962894       1.29409504      -2.00000000       41.7857361       1.78639197    
   4.91481400      0.647047520      -2.00000000       41.7857361       1.78639197    
   4.91481400      0.647047520      -3.00000000       41.7857361       1.78639197    
   4.82962894       1.29409504      -2.00000000       42.1623573       1.78110576    
   4.82962894       1.29409504      -1.00000000       42.1623573       1.78110576    
   4.91481400      0.647047520      -1.00000000       42.1623573       1.78110576    
   4.91481400      0.647047520      -2.00000000       42.1623573       1.78110576    
   4.82962894       1.29409504      -1.00000000       42.3557358       1.77858484    
   4.82962894       1.29409504       0.00000000       42.3557358       1.77858484    
   4.91481400      0.647047520       0.00000000       42.3557358       1.77858484    
   4.91481400      0.647047520      -1.00000000       42.3557358       1.77858484    
   4.91481400      0.647047520      -10.0000000       29.4232941       2.16168118    
   4.91481400      0.647047520      -9.00000000       29.4232941       2.16168118    
   5.00000000       0.00000000      -9.00000000       29.4232941       2.16168118    
   5.00000000       0.00000000      -10.0000000       29.4232941       2.16168118    
   4.91481400      0.647047520      -9.00000000       33.5022469       1.97244585    
   4.91481400      0.647047520      -8.00000000       33.5022469       1.97244585    
   5.00000000       0.00000000      -8.00000000       33.5022469       1.97244585    
   5.00000000       0.00000000      -9.00000000       33.5022469       1.97244585    
   4.91481400      0.647047520      -8.00000000       36.3422813       1.89455688    
   4.91481400      0.647047520      -7.00000000       36.3422813       1.89455688    
   5.00000000       0.00000000      -7.00000000       36.3422813       1.89455688    
   5.00000000       0.00000000      -8.00000000       36.3422813       1.89455688    
   4.91481400      0.647047520      -7.00000000       38.3848343       1.85064590    
   4.91481400      0.647047520      -6.00000000       38.3848343       1.85064590    
   5.00000000       0.00000000      -6.00000000       38.3848343       1.85064590    
   5.00000000       0.00000000      -7.00000000       38.3848343       1.85064590    
   4.91481400      0.647047520      -6.00000000       39.8882065       1.82289755    
   4.91481400      0.647047520      -5.00000000       39.8882065       1.82289755    
   5.00000000       0.00000000      -5.00000000       39.8882065       1.82289755    
   5.00000000       0.00000000      -6.00000000       39.8882065       1.82289755    
   4.91481400      0.647047520      -5.00000000       41.0050316       1.80449140    
   4.91481400      0.647047520      -4.00000000       41.0050316       1.80449140    
   5.00000000       0.00000000      -4.00000000       41.0050316       1.80449140    
   5.00000000       0.00000000      -5.00000000       41.0050316       1.80449140    
   4.91481400      0.647047520      -4.00000000       41.8295364       1.79182351    
   4.91481400      0.647047520      -3.00000000       41.8295364       1.79182351    
   5.00000000       0.00000000      -3.00000000       41.8295364       1.79182351    
   5.00000000       0.00000000      -4.00000000       41.8295364       1.79182351    
   4.91481400      0.647047520      -3.00000000       42.4157066       1.78323281    
   4.91481400      0.647047520      -2.00000000       42.4157066       1.78323281    
   5.00000000       0.00000000      -2.00000000       42.4157066       1.78323281    
   5.00000000       0.00000000      -3.00000000       42.4157066       1.78323281    
   4.91481400      0.647047520      -2.00000000       42.7997665       1.77801991    
   4.91481400      0.647047520      -1.00000000       42.7997665       1.77801991    
   5.00000000       0.00000000      -1.00000000       42.7997665       1.77801991    
   5.00000000       0.00000000      -2.00000000       42.7997665       1.77801991    
   4.91481400      0.647047520      -1.00000000       42.9972076       1.77553225    
   4.91481400      0.647047520       0.00000000       42.9972076       1.77553225    
   5.00000000       0.00000000       0.00000000       42.9972076       1.77553225    
   5.00000000       0.00000000      -1.00000000       42.9972076       1.77553225    
   4.33012676       2.50000000      -10.0000000       27.4516392       2.21004581    
   4.33012676       2.50000000      -9.00000000       27.4516392       2.21004581    
   4.57987785       1.89704800      -9.00000000       27.4516392       2.21004581    
   4.57987785       1.89704800      -10.0000000       27.4516392       2.21004581    
   4.33012676       2.50000000      -9.00000000       30.7218666       2.01055670    
   4.33012676       2.50000000      -8.00000000       30.7218666       2.01055670    
   4.57987785       1.89704800      -8.00000000       30.7218666       2.01055670    
   4.57987785       1.89704800      -9.00000000       30.7218666       2.01055670    
   4.33012676       2.50000000      -8.00000000       33.1315804       1.92660797    
   4.33012676       2.50000000      -7.00000000       33.1315804       1.92660797    
   4.57987785       1.89704800      -7.00000000       33.1315804       1.92660797    
   4.57987785       1.89704800      -8.00000000       33.1315804       1.92660797    
   4.33012676       2.50000000      -7.00000000       34.8938522       1.87887740    
   4.33012676       2.50000000      -6.00000000       34.8938522       1.87887740    
   4.57987785       1.89704800      -6.00000000       34.8938522       1.87887740    
   4.57987785       1.89704800      -7.00000000       34.8938522       1.87887740    
   4.33012676       2.50000000      -6.00000000       36.2014427       1.84858525    
   4.33012676       2.50000000      -5.00000000       36.2014427       1.84858525    
   4.57987785       1.89704800      -5.00000000       36.2014427       1.84858525    
   4.57987785       1.89704800      -6.00000000       36.2014427       1.84858525    
   4.33012676       2.50000000      -5.00000000       37.1780357       1.82843947    
   4.33012676       2.50000000      -4.00000000       37.1780357       1.82843947    
   4.57987785       1.89704800      -4.00000000       37.1780357       1.82843947    
   4.57987785       1.89704800      -5.00000000       37.1780357       1.82843947    
   4.33012676       2.50000000      -4.00000000       37.9010429       1.81455266    
   4.33012676       2.50000000      -3.00000000       37.9010429       1.81455266    
   4.57987785       1.89704800      -3.00000000       37.9010429       1.81455266    
   4.57987785       1.89704800      -4.00000000       37.9010429       1.81455266    
   4.33012676       2.50000000      -3.00000000       38.4159775       1.80512595    
   4.33012676       2.50000000      -2.00000000       38.4159775       1.80512595    
   4.57987785       1.89704800      -2.00000000       38.4159775       1.80512595    
   4.57987785       1.89704800      -3.00000000       38.4159775       1.80512595    
   4.33012676       2.50000000      -2.00000000       38.7541771       1.79940200    
   4.33012676       2.50000000      -1.00000000       38.7541771       1.79940200    
   4.57987785       1.89704800      -1.00000000       38.7541771       1.79940200    
   4.57987785       1.89704800      -2.00000000       38.7541771       1.79940200    
   4.33012676       2.50000000      -1.00000000       38.9277725       1.79667377    
   4.33012676       2.50000000       0.00000000       38.9277725       1.79667377    
   4.57987785       1.89704800       0.00000000       38.9277725       1.79667377    
   4.57987785       1.89704800      -1.00000000       38.9277725       1.79667377    
   4.57987785       1.89704800      -10.0000000       28.3294315       2.18747592    
   4.57987785       1.89704800      -9.00000000       28.3294315       2.18747592    
   4.82962894       1.29409504      -9.00000000       28.3294315       2.18747592    
   4.82962894       1.29409504      -10.0000000       28.3294315       2.18747592    
   4.57987785       1.89704800      -9.00000000       31.9793262       1.99241555    
   4.57987785       1.89704800      -8.00000000       31.9793262       1.99241555    
   4.82962894       1.29409504      -8.00000000       31.9793262       1.99241555    
   4.82962894       1.29409504      -9.00000000       31.9793262       1.99241555    
   4.57987785       1.89704800      -8.00000000       34.5944633       1.91121757    
   4.57987785       1.89704800      -7.00000000       34.5944633       1.91121757    
   4.82962894       1.29409504      -7.00000000       34.5944633       1.91121757    
   4.82962894       1.29409504      -8.00000000       34.5944633       1.91121757    
   4.57987785       1.89704800      -7.00000000       36.4908791       1.86525750    
   4.57987785       1.89704800      -6.00000000       36.4908791       1.86525750    
   4.82962894       1.29409504      -6.00000000       36.4908791       1.86525750    
   4.82962894       1.29409504      -7.00000000       36.4908791       1.86525750    
   4.57987785       1.89704800      -6.00000000       37.8923492       1.83615613    
   4.57987785       1.89704800      -5.00000000       37.8923492       1.83615613    
   4.82962894       1.29409504      -5.00000000       37.8923492       1.83615613    
   4.82962894       1.29409504      -6.00000000       37.8923492       1.83615613    
   4.57987785       1.89704800      -5.00000000       38.9360695       1.81683099    
   4.57987785       1.89704800      -4.00000000       38.9360695       1.81683099    
   4.82962894       1.29409504      -4.00000000       38.9360695       1.81683099    
   4.82962894       1.29409504      -5.00000000       38.9360695       1.81683099    
   4.57987785       1.89704800      -4.00000000       39.7076607       1.80352139    
   4.57987785       1.89704800      -3.00000000       39.7076607       1.80352139    
   4.82962894       1.29409504      -3.00000000       39.7076607       1.80352139    
   4.82962894       1.29409504      -4.00000000       39.7076607       1.80352139    
   4.57987785       1.89704800      -3.00000000       40.2567787       1.79449081    
   4.57987785       1.89704800      -2.00000000       40.2567787       1.79449081    
   4.82962894       1.29409504      -2.00000000       40.2567787       1.79449081    
   4.82962894       1.29409504      -3.00000000       40.2567787       1.79449081    
   4.57987785       1.89704800      -2.00000000       40.6168900       1.78901005    
   4.57987785       1.89704800      -1.00000000       40.6168900       1.78901005    
   4.82962894       1.29409504      -1.00000000       40.6168900       1.78901005    
   4.82962894       1.29409504      -2.00000000       40.6168900       1.78901005    
   4.57987785       1.89704800      -1.00000000       40.8026543       1.78639197    
   4.57987785       1.89704800       0.00000000       40.8026543       1.78639197    
   4.82962894       1.29409504       0.00000000       40.8026543       1.78639197    
   4.82962894       1.29409504      -1.00000000       40.8026543       1.78639197    
   3.53553391       3.53553391      -10.0000000       24.6718426       2.29571319    
   3.53553391       3.53553391      -9.00000000       24.6718426       2.29571319    
   3.93283010       3.01776695      -9.00000000       24.6718426       2.29571319    
   3.93283010       3.01776695      -10.0000000       24.6718426       2.29571319    
   3.53553391       3.53553391      -9.00000000       26.7181015       2.08132553    
   3.53553391       3.53553391      -8.00000000       26.7181015       2.08132553    
   3.93283010       3.01776695      -8.00000000       26.7181015       2.08132553    
   3.93283010       3.01776695      -9.00000000       26.7181015       2.08132553    
   3.53553391       3.53553391      -8.00000000       28.4772835       1.98708916    
   3.53553391       3.53553391      -7.00000000       28.4772835       1.98708916    
   3.93283010       3.01776695      -7.00000000       28.4772835       1.98708916    
   3.93283010       3.01776695      -8.00000000       28.4772835       1.98708916    
   3.53553391       3.53553391      -7.00000000       29.8171749       1.93257391    
   3.53553391       3.53553391      -6.00000000       29.8171749       1.93257391    
   3.93283010       3.01776695      -6.00000000       29.8171749       1.93257391    
   3.93283010       3.01776695      -7.00000000       29.8171749       1.93257391    
   3.53553391       3.53553391      -6.00000000       30.8308887       1.89766395    
   3.53553391       3.53553391      -5.00000000       30.8308887       1.89766395    
   3.93283010       3.01776695      -5.00000000       30.8308887       1.89766395    
   3.93283010       3.01776695      -6.00000000       30.8308887       1.89766395    
   3.53553391       3.53553391      -5.00000000       31.5973339       1.87432265    
   3.53553391       3.53553391      -4.00000000       31.5973339       1.87432265    
   3.93283010       3.01776695      -4.00000000       31.5973339       1.87432265    
   3.93283010       3.01776695      -5.00000000       31.5973339       1.87432265    
   3.53553391       3.53553391      -4.00000000       32.1685829       1.85817993    
   3.53553391       3.53553391      -3.00000000       32.1685829       1.85817993    
   3.93283010       3.01776695      -3.00000000       32.1685829       1.85817993    
   3.93283010       3.01776695      -4.00000000       32.1685829       1.85817993    
   3.53553391       3.53553391      -3.00000000       32.5771370       1.84719789    
   3.53553391       3.53553391      -2.00000000       32.5771370       1.84719789    
   3.93283010       3.01776695      -2.00000000       32.5771370       1.84719789    
   3.93283010       3.01776695      -3.00000000       32.5771370       1.84719789    
   3.53553391       3.53553391      -2.00000000       32.8470268       1.84052074    
   3.53553391       3.53553391      -1.00000000       32.8470268       1.84052074    
   3.93283010       3.01776695      -1.00000000       32.8470268       1.84052074    
   3.93283010       3.01776695      -2.00000000       32.8470268       1.84052074    
   3.53553391       3.53553391      -1.00000000       32.9857178       1.83734000    
   3.53553391       3.53553391       0.00000000       32.9857178       1.83734000    
   3.93283010       3.01776695       0.00000000       32.9857178       1.83734000    
   3.93283010       3.01776695      -1.00000000       32.9857178       1.83734000    
   3.93283010       3.01776695      -10.0000000       25.9884186       2.25210738    
   3.93283010       3.01776695      -9.00000000       25.9884186       2.25210738    
   4.33012676       2.50000000      -9.00000000       25.9884186       2.25210738    
   4.33012676       2.50000000      -10.0000000       25.9884186       2.25210738    
   3.93283010       3.01776695      -9.00000000       28.6586838       2.04422617    
   3.93283010       3.01776695      -8.00000000       28.6586838       2.04422617    
   4.33012676       2.50000000      -8.00000000       28.6586838       2.04422617    
   4.33012676       2.50000000      -9.00000000       28.6586838       2.04422617    
   3.93283010       3.01776695      -8.00000000       30.7575111       1.95497608    
   3.93283010       3.01776695      -7.00000000       30.7575111       1.95497608    
   4.33012676       2.50000000      -7.00000000       30.7575111       1.95497608    
   4.33012676       2.50000000      -8.00000000       30.7575111       1.95497608    
   3.93283010       3.01776695      -7.00000000       32.3186684       1.90387070    
   3.93283010       3.01776695      -6.00000000       32.3186684       1.90387070    
   4.33012676       2.50000000      -6.00000000       32.3186684       1.90387070    
   4.33012676       2.50000000      -7.00000000       32.3186684       1.90387070    
   3.93283010       3.01776695      -6.00000000       33.4869576       1.87131834    
   3.93283010       3.01776695      -5.00000000       33.4869576       1.87131834    
   4.33012676       2.50000000      -5.00000000       33.4869576       1.87131834    
   4.33012676       2.50000000      -6.00000000       33.4869576       1.87131834    
   3.93283010       3.01776695      -5.00000000       34.3636665       1.84962809    
   3.93283010       3.01776695      -4.00000000       34.3636665       1.84962809    
   4.33012676       2.50000000      -4.00000000       34.3636665       1.84962809    
   4.33012676       2.50000000      -5.00000000       34.3636665       1.84962809    
   3.93283010       3.01776695      -4.00000000       35.0145874       1.83465755    
   3.93283010       3.01776695      -3.00000000       35.0145874       1.83465755    
   4.33012676       2.50000000      -3.00000000       35.0145874       1.83465755    
   4.33012676       2.50000000      -4.00000000       35.0145874       1.83465755    
   3.93283010       3.01776695      -3.00000000       35.4790802       1.82448626    
   3.93283010       3.01776695      -2.00000000       35.4790802       1.82448626    
   4.33012676       2.50000000      -2.00000000       35.4790802       1.82448626    
   4.33012676       2.50000000      -3.00000000       35.4790802       1.82448626    
   3.93283010       3.01776695      -2.00000000       35.7847672       1.81830800    
   3.93283010       3.01776695      -1.00000000       35.7847672       1.81830800    
   4.33012676       2.50000000      -1.00000000       35.7847672       1.81830800    
   4.33012676       2.50000000      -2.00000000       35.7847672       1.81830800    
   3.93283010       3.01776695      -1.00000000       35.9433098       1.81535316    
   3.93283010       3.01776695       0.00000000       35.9433098       1.81535316    
   4.33012676       2.50000000       0.00000000       35.9433098       1.81535316    
   4.33012676       2.50000000      -1.00000000       35.9433098       1.81535316    
   2.50000000       4.33012676      -10.0000000       21.2717953       2.44671392    
   2.50000000       4.33012676      -9.00000000       21.2717953       2.44671392    
   3.01776695       3.93283010      -9.00000000       21.2717953       2.44671392    
   3.01776695       3.93283010      -10.0000000       21.2717953       2.44671392    
   2.50000000       4.33012676      -9.00000000       21.5849819       2.21888804    
   2.50000000       4.33012676      -8.00000000       21.5849819       2.21888804    
   3.01776695       3.93283010      -8.00000000       21.5849819       2.21888804    
   3.01776695       3.93283010      -9.00000000       21.5849819       2.21888804    
   2.50000000       4.33012676      -8.00000000       22.4018955       2.10922050    
   2.50000000       4.33012676      -7.00000000       22.4018955       2.10922050    
   3.01776695       3.93283010      -7.00000000       22.4018955       2.10922050    
   3.01776695       3.93283010      -8.00000000       22.4018955       2.10922050    
   2.50000000       4.33012676      -7.00000000       23.1288662       2.04317284    
   2.50000000       4.33012676      -6.00000000       23.1288662       2.04317284    
   3.01776695       3.93283010      -6.00000000       23.1288662       2.04317284    
   3.01776695       3.93283010      -7.00000000       23.1288662       2.04317284    
   2.50000000       4.33012676      -6.00000000       23.7174072       1.99993098    
   2.50000000       4.33012676      -5.00000000       23.7174072       1.99993098    
   3.01776695       3.93283010      -5.00000000       23.7174072       1.99993098    
   3.01776695       3.93283010      -6.00000000       23.7174072       1.99993098    
   2.50000000       4.33012676      -5.00000000       24.1806965       1.97063005    
   2.50000000       4.33012676      -4.00000000       24.1806965       1.97063005    
   3.01776695       3.93283010      -4.00000000       24.1806965       1.97063005    
   3.01776695       3.93283010      -5.00000000       24.1806965       1.97063005    
   2.50000000       4.33012676      -4.00000000       24.5335484       1.95019126    
   2.50000000       4.33012676      -3.00000000       24.5335484       1.95019126    
   3.01776695       3.93283010      -3.00000000       24.5335484       1.95019126    
   3.01776695       3.93283010      -4.00000000       24.5335484       1.95019126    
   2.50000000       4.33012676      -3.00000000       24.7892914       1.93620956    
   2.50000000       4.33012676      -2.00000000       24.7892914       1.93620956    
   3.01776695       3.93283010      -2.00000000       24.7892914       1.93620956    
   3.01776695       3.93283010      -3.00000000       24.7892914       1.93620956    
   2.50000000       4.33012676      -2.00000000       24.9613476       1.92767859    
   2.50000000       4.33012676      -1.00000000       24.9613476       1.92767859    
   3.01776695       3.93283010      -1.00000000       24.9613476       1.92767859    
   3.01776695       3.93283010      -2.00000000       24.9613476       1.92767859    
   2.50000000       4.33012676      -1.00000000       25.0505466       1.92361462    
   2.50000000       4.33012676       0.00000000       25.0505466       1.92361462    
   3.01776695       3.93283010       0.00000000       25.0505466       1.92361462    
   3.01776695       3.93283010      -1.00000000       25.0505466       1.92361462    
   3.01776695       3.93283010      -10.0000000       22.7767868       2.37136531    
   3.01776695       3.93283010      -9.00000000       22.7767868       2.37136531    
   3.53553391       3.53553391      -9.00000000       22.7767868       2.37136531    
   3.53553391       3.53553391      -10.0000000       22.7767868       2.37136531    
   3.01776695       3.93283010      -9.00000000       23.9343853       2.14703894    
   3.01776695       3.93283010      -8.00000000       23.9343853       2.14703894    
   3.53553391       3.53553391      -8.00000000       23.9343853       2.14703894    
   3.53553391       3.53553391      -9.00000000       23.9343853       2.14703894    
   3.01776695       3.93283010      -8.00000000       25.2255535       2.04415488    
   3.01776695       3.93283010      -7.00000000       25.2255535       2.04415488    
   3.53553391       3.53553391      -7.00000000       25.2255535       2.04415488    
   3.53553391       3.53553391      -8.00000000       25.2255535       2.04415488    
   3.01776695       3.93283010      -7.00000000       26.2631435       1.98362815    
   3.01776695       3.93283010      -6.00000000       26.2631435       1.98362815    
   3.53553391       3.53553391      -6.00000000       26.2631435       1.98362815    
   3.53553391       3.53553391      -7.00000000       26.2631435       1.98362815    
   3.01776695       3.93283010      -6.00000000       27.0681419       1.94451725    
   3.01776695       3.93283010      -5.00000000       27.0681419       1.94451725    
   3.53553391       3.53553391      -5.00000000       27.0681419       1.94451725    
   3.53553391       3.53553391      -6.00000000       27.0681419       1.94451725    
   3.01776695       3.93283010      -5.00000000       27.6855545       1.91823459    
   3.01776695       3.93283010      -4.00000000       27.6855545       1.91823459    
   3.53553391       3.53553391      -4.00000000       27.6855545       1.91823459    
   3.53553391       3.53553391      -5.00000000       27.6855545       1.91823459    
   3.01776695       3.93283010      -4.00000000       28.1495247       1.89999747    
   3.01776695       3.93283010      -3.00000000       28.1495247       1.89999747    
   3.53553391       3.53553391      -3.00000000       28.1495247       1.89999747    
   3.53553391       3.53553391      -4.00000000       28.1495247       1.89999747    
   3.01776695       3.93283010      -3.00000000       28.4831314       1.88756371    
   3.01776695       3.93283010      -2.00000000       28.4831314       1.88756371    
   3.53553391       3.53553391      -2.00000000       28.4831314       1.88756371    
   3.53553391       3.53553391      -3.00000000       28.4831314       1.88756371    
   3.01776695       3.93283010      -2.00000000       28.7048512       1.87999475    
   3.01776695       3.93283010      -1.00000000       28.7048512       1.87999475    
   3.53553391       3.53553391      -1.00000000       28.7048512       1.87999475    
   3.53553391       3.53553391      -2.00000000       28.7048512       1.87999475    
   3.01776695       3.93283010      -1.00000000       28.8212929       1.87636578    
   3.01776695       3.93283010       0.00000000       28.8212929       1.87636578    
   3.53553391       3.53553391       0.00000000       28.8212929       1.87636578    
   3.53553391       3.53553391      -1.00000000       28.8212929       1.87636578    
   1.29409504       4.82962894      -10.0000000       18.0989189       2.69496703    
   1.29409504       4.82962894      -9.00000000       18.0989189       2.69496703    
   1.89704800       4.57987785      -9.00000000       18.0989189       2.69496703    
   1.89704800       4.57987785      -10.0000000       18.0989189       2.69496703    
   1.29409504       4.82962894      -9.00000000       16.3518658       2.49080324    
   1.29409504       4.82962894      -8.00000000       16.3518658       2.49080324    
   1.89704800       4.57987785      -8.00000000       16.3518658       2.49080324    
   1.89704800       4.57987785      -9.00000000       16.3518658       2.49080324    
   1.29409504       4.82962894      -8.00000000       15.9454622       2.37314868    
   1.29409504       4.82962894      -7.00000000       15.9454622       2.37314868    
   1.89704800       4.57987785      -7.00000000       15.9454622       2.37314868    
   1.89704800       4.57987785      -8.00000000       15.9454622       2.37314868    
   1.29409504       4.82962894      -7.00000000       15.8510447       2.29481840    
   1.29409504       4.82962894      -6.00000000       15.8510447       2.29481840    
   1.89704800       4.57987785      -6.00000000       15.8510447       2.29481840    
   1.89704800       4.57987785      -7.00000000       15.8510447       2.29481840    
   1.29409504       4.82962894      -6.00000000       15.8625612       2.24025440    
   1.29409504       4.82962894      -5.00000000       15.8625612       2.24025440    
   1.89704800       4.57987785      -5.00000000       15.8625612       2.24025440    
   1.89704800       4.57987785      -6.00000000       15.8625612       2.24025440    
   1.29409504       4.82962894      -5.00000000       15.9131489       2.20175147    
   1.29409504       4.82962894      -4.00000000       15.9131489       2.20175147    
   1.89704800       4.57987785      -4.00000000       15.9131489       2.20175147    
   1.89704800       4.57987785      -5.00000000       15.9131489       2.20175147    
   1.29409504       4.82962894      -4.00000000       15.9682665       2.17415714    
   1.29409504       4.82962894      -3.00000000       15.9682665       2.17415714    
   1.89704800       4.57987785      -3.00000000       15.9682665       2.17415714    