 VARIABLES="X" "Y" "Z" "abs(p) (Pa)" "angle(p) (rad)"
ZONE N=   1080,E =     600, F=FEPOINT, ET=QUADRILATERAL
   4.82962894       1.29409504      -10.0000000       147.545792       1.57079625    
   4.82962894       1.29409504      -9.00000000       147.545792       1.57079625    
   4.91481400      0.647047520      -9.00000000       147.545792       1.57079625    
   4.91481400      0.647047520      -10.0000000       147.545792       1.57079625    
   4.82962894       1.29409504      -9.00000000       150.889404       1.57079625    
   4.82962894       1.29409504      -8.00000000       150.889404       1.57079625    
   4.91481400      0.647047520      -8.00000000       150.889404       1.57079625    
   4.91481400      0.647047520      -9.00000000       150.889404       1.57079625    
   4.82962894       1.29409504      -8.00000000       150.907852       1.57079637    
   4.82962894       1.29409504      -7.00000000       150.907852       1.57079637    
   4.91481400      0.647047520      -7.00000000       150.907852       1.57079637    
   4.91481400      0.647047520      -8.00000000       150.907852       1.57079637    
   4.82962894       1.29409504      -7.00000000       150.932419       1.57079601    
   4.82962894       1.29409504      -6.00000000       150.932419       1.57079601    
   4.91481400      0.647047520      -6.00000000       150.932419       1.57079601    
   4.91481400      0.647047520      -7.00000000       150.932419       1.57079601    
   4.82962894       1.29409504      -6.00000000       150.874908       1.57079613    
   4.82962894       1.29409504      -5.00000000       150.874908       1.57079613    
   4.91481400      0.647047520      -5.00000000       150.874908       1.57079613    
   4.91481400      0.647047520      -6.00000000       150.874908       1.57079613    
   4.82962894       1.29409504      -5.00000000       150.874817       1.57079625    
   4.82962894       1.29409504      -4.00000000       150.874817       1.57079625    
   4.91481400      0.647047520      -4.00000000       150.874817       1.57079625    
   4.91481400      0.647047520      -5.00000000       150.874817       1.57079625    
   4.82962894       1.29409504      -4.00000000       150.990997       1.57079637    
   4.82962894       1.29409504      -3.00000000       150.990997       1.57079637    
   4.91481400      0.647047520      -3.00000000       150.990997       1.57079637    
   4.91481400      0.647047520      -4.00000000       150.990997       1.57079637    
   4.82962894       1.29409504      -3.00000000       150.944397       1.57079577    
   4.82962894       1.29409504      -2.00000000       150.944397       1.57079577    
   4.91481400      0.647047520      -2.00000000       150.944397       1.57079577    
   4.91481400      0.647047520      -3.00000000       150.944397       1.57079577    
   4.82962894       1.29409504      -2.00000000       150.970383       1.57079506    
   4.82962894       1.29409504      -1.00000000       150.970383       1.57079506    
   4.91481400      0.647047520      -1.00000000       150.970383       1.57079506    
   4.91481400      0.647047520      -2.00000000       150.970383       1.57079506    
   4.82962894       1.29409504      -1.00000000       150.613113       1.57079589    
   4.82962894       1.29409504       0.00000000       150.613113       1.57079589    
   4.91481400      0.647047520       0.00000000       150.613113       1.57079589    
   4.91481400      0.647047520      -1.00000000       150.613113       1.57079589    
   4.91481400      0.647047520      -10.0000000       147.548035      -1.57079637    
   4.91481400      0.647047520      -9.00000000       147.548035      -1.57079637    
   5.00000000       0.00000000      -9.00000000       147.548035      -1.57079637    
   5.00000000       0.00000000      -10.0000000       147.548035      -1.57079637    
   4.91481400      0.647047520      -9.00000000       150.892197      -1.57079637    
   4.91481400      0.647047520      -8.00000000       150.892197      -1.57079637    
   5.00000000       0.00000000      -8.00000000       150.892197      -1.57079637    
   5.00000000       0.00000000      -9.00000000       150.892197      -1.57079637    
   4.91481400      0.647047520      -8.00000000       150.910492      -1.57079649    
   4.91481400      0.647047520      -7.00000000       150.910492      -1.57079649    
   5.00000000       0.00000000      -7.00000000       150.910492      -1.57079649    
   5.00000000       0.00000000      -8.00000000       150.910492      -1.57079649    
   4.91481400      0.647047520      -7.00000000       150.935135      -1.57079637    
   4.91481400      0.647047520      -6.00000000       150.935135      -1.57079637    
   5.00000000       0.00000000      -6.00000000       150.935135      -1.57079637    
   5.00000000       0.00000000      -7.00000000       150.935135      -1.57079637    
   4.91481400      0.647047520      -6.00000000       150.878036      -1.57079649    
   4.91481400      0.647047520      -5.00000000       150.878036      -1.57079649    
   5.00000000       0.00000000      -5.00000000       150.878036      -1.57079649    
   5.00000000       0.00000000      -6.00000000       150.878036      -1.57079649    
   4.91481400      0.647047520      -5.00000000       150.877945      -1.57079637    
   4.91481400      0.647047520      -4.00000000       150.877945      -1.57079637    
   5.00000000       0.00000000      -4.00000000       150.877945      -1.57079637    
   5.00000000       0.00000000      -5.00000000       150.877945      -1.57079637    
   4.91481400      0.647047520      -4.00000000       150.993607      -1.57079673    
   4.91481400      0.647047520      -3.00000000       150.993607      -1.57079673    
   5.00000000       0.00000000      -3.00000000       150.993607      -1.57079673    
   5.00000000       0.00000000      -4.00000000       150.993607      -1.57079673    
   4.91481400      0.647047520      -3.00000000       150.947235      -1.57079732    
   4.91481400      0.647047520      -2.00000000       150.947235      -1.57079732    
   5.00000000       0.00000000      -2.00000000       150.947235      -1.57079732    
   5.00000000       0.00000000      -3.00000000       150.947235      -1.57079732    
   4.91481400      0.647047520      -2.00000000       150.973694      -1.57079697    
   4.91481400      0.647047520      -1.00000000       150.973694      -1.57079697    
   5.00000000       0.00000000      -1.00000000       150.973694      -1.57079697    
   5.00000000       0.00000000      -2.00000000       150.973694      -1.57079697    
   4.91481400      0.647047520      -1.00000000       150.616272      -1.57079768    
   4.91481400      0.647047520       0.00000000       150.616272      -1.57079768    
   5.00000000       0.00000000       0.00000000       150.616272      -1.57079768    
   5.00000000       0.00000000      -1.00000000       150.616272      -1.57079768    
   4.33012676       2.50000000      -10.0000000       147.547501       1.57079613    
   4.33012676       2.50000000      -9.00000000       147.547501       1.57079613    
   4.57987785       1.89704800      -9.00000000       147.547501       1.57079613    
   4.57987785       1.89704800      -10.0000000       147.547501       1.57079613    
   4.33012676       2.50000000      -9.00000000       150.891327       1.57079625    
   4.33012676       2.50000000      -8.00000000       150.891327       1.57079625    
   4.57987785       1.89704800      -8.00000000       150.891327       1.57079625    
   4.57987785       1.89704800      -9.00000000       150.891327       1.57079625    
   4.33012676       2.50000000      -8.00000000       150.910019       1.57079613    
   4.33012676       2.50000000      -7.00000000       150.910019       1.57079613    
   4.57987785       1.89704800      -7.00000000       150.910019       1.57079613    
   4.57987785       1.89704800      -8.00000000       150.910019       1.57079613    
   4.33012676       2.50000000      -7.00000000       150.934708       1.57079613    
   4.33012676       2.50000000      -6.00000000       150.934708       1.57079613    
   4.57987785       1.89704800      -6.00000000       150.934708       1.57079613    
   4.57987785       1.89704800      -7.00000000       150.934708       1.57079613    
   4.33012676       2.50000000      -6.00000000       150.876907       1.57079589    
   4.33012676       2.50000000      -5.00000000       150.876907       1.57079589    
   4.57987785       1.89704800      -5.00000000       150.876907       1.57079589    
   4.57987785       1.89704800      -6.00000000       150.876907       1.57079589    
   4.33012676       2.50000000      -5.00000000       150.876968       1.57079589    
   4.33012676       2.50000000      -4.00000000       150.876968       1.57079589    
   4.57987785       1.89704800      -4.00000000       150.876968       1.57079589    
   4.57987785       1.89704800      -5.00000000       150.876968       1.57079589    
   4.33012676       2.50000000      -4.00000000       150.992783       1.57079566    
   4.33012676       2.50000000      -3.00000000       150.992783       1.57079566    
   4.57987785       1.89704800      -3.00000000       150.992783       1.57079566    
   4.57987785       1.89704800      -4.00000000       150.992783       1.57079566    
   4.33012676       2.50000000      -3.00000000       150.946365       1.57079577    
   4.33012676       2.50000000      -2.00000000       150.946365       1.57079577    
   4.57987785       1.89704800      -2.00000000       150.946365       1.57079577    
   4.57987785       1.89704800      -3.00000000       150.946365       1.57079577    
   4.33012676       2.50000000      -2.00000000       150.971786       1.57079506    
   4.33012676       2.50000000      -1.00000000       150.971786       1.57079506    
   4.57987785       1.89704800      -1.00000000       150.971786       1.57079506    
   4.57987785       1.89704800      -2.00000000       150.971786       1.57079506    
   4.33012676       2.50000000      -1.00000000       150.614395       1.57079482    
   4.33012676       2.50000000       0.00000000       150.614395       1.57079482    
   4.57987785       1.89704800       0.00000000       150.614395       1.57079482    
   4.57987785       1.89704800      -1.00000000       150.614395       1.57079482    
   4.57987785       1.89704800      -10.0000000       147.548309      -1.57079637    
   4.57987785       1.89704800      -9.00000000       147.548309      -1.57079637    
   4.82962894       1.29409504      -9.00000000       147.548309      -1.57079637    
   4.82962894       1.29409504      -10.0000000       147.548309      -1.57079637    
   4.57987785       1.89704800      -9.00000000       150.892166      -1.57079625    
   4.57987785       1.89704800      -8.00000000       150.892166      -1.57079625    
   4.82962894       1.29409504      -8.00000000       150.892166      -1.57079625    
   4.82962894       1.29409504      -9.00000000       150.892166      -1.57079625    
   4.57987785       1.89704800      -8.00000000       150.910263      -1.57079625    
   4.57987785       1.89704800      -7.00000000       150.910263      -1.57079625    
   4.82962894       1.29409504      -7.00000000       150.910263      -1.57079625    
   4.82962894       1.29409504      -8.00000000       150.910263      -1.57079625    
   4.57987785       1.89704800      -7.00000000       150.935135      -1.57079637    
   4.57987785       1.89704800      -6.00000000       150.935135      -1.57079637    
   4.82962894       1.29409504      -6.00000000       150.935135      -1.57079637    
   4.82962894       1.29409504      -7.00000000       150.935135      -1.57079637    
   4.57987785       1.89704800      -6.00000000       150.878098      -1.57079625    
   4.57987785       1.89704800      -5.00000000       150.878098      -1.57079625    
   4.82962894       1.29409504      -5.00000000       150.878098      -1.57079625    
   4.82962894       1.29409504      -6.00000000       150.878098      -1.57079625    
   4.57987785       1.89704800      -5.00000000       150.877777      -1.57079637    
   4.57987785       1.89704800      -4.00000000       150.877777      -1.57079637    
   4.82962894       1.29409504      -4.00000000       150.877777      -1.57079637    
   4.82962894       1.29409504      -5.00000000       150.877777      -1.57079637    
   4.57987785       1.89704800      -4.00000000       150.993713      -1.57079637    
   4.57987785       1.89704800      -3.00000000       150.993713      -1.57079637    
   4.82962894       1.29409504      -3.00000000       150.993713      -1.57079637    
   4.82962894       1.29409504      -4.00000000       150.993713      -1.57079637    
   4.57987785       1.89704800      -3.00000000       150.947266      -1.57079661    
   4.57987785       1.89704800      -2.00000000       150.947266      -1.57079661    
   4.82962894       1.29409504      -2.00000000       150.947266      -1.57079661    
   4.82962894       1.29409504      -3.00000000       150.947266      -1.57079661    
   4.57987785       1.89704800      -2.00000000       150.973785      -1.57079661    
   4.57987785       1.89704800      -1.00000000       150.973785      -1.57079661    
   4.82962894       1.29409504      -1.00000000       150.973785      -1.57079661    
   4.82962894       1.29409504      -2.00000000       150.973785      -1.57079661    
   4.57987785       1.89704800      -1.00000000       150.616531      -1.57079494    
   4.57987785       1.89704800       0.00000000       150.616531      -1.57079494    
   4.82962894       1.29409504       0.00000000       150.616531      -1.57079494    
   4.82962894       1.29409504      -1.00000000       150.616531      -1.57079494    
   3.53553391       3.53553391      -10.0000000       147.548248       1.57079625    
   3.53553391       3.53553391      -9.00000000       147.548248       1.57079625    
   3.93283010       3.01776695      -9.00000000       147.548248       1.57079625    
   3.93283010       3.01776695      -10.0000000       147.548248       1.57079625    
   3.53553391       3.53553391      -9.00000000       150.891876       1.57079625    
   3.53553391       3.53553391      -8.00000000       150.891876       1.57079625    
   3.93283010       3.01776695      -8.00000000       150.891876       1.57079625    
   3.93283010       3.01776695      -9.00000000       150.891876       1.57079625    
   3.53553391       3.53553391      -8.00000000       150.910431       1.57079601    
   3.53553391       3.53553391      -7.00000000       150.910431       1.57079601    
   3.93283010       3.01776695      -7.00000000       150.910431       1.57079601    
   3.93283010       3.01776695      -8.00000000       150.910431       1.57079601    
   3.53553391       3.53553391      -7.00000000       150.935257       1.57079601    
   3.53553391       3.53553391      -6.00000000       150.935257       1.57079601    
   3.93283010       3.01776695      -6.00000000       150.935257       1.57079601    
   3.93283010       3.01776695      -7.00000000       150.935257       1.57079601    
   3.53553391       3.53553391      -6.00000000       150.877380       1.57079577    
   3.53553391       3.53553391      -5.00000000       150.877380       1.57079577    
   3.93283010       3.01776695      -5.00000000       150.877380       1.57079577    
   3.93283010       3.01776695      -6.00000000       150.877380       1.57079577    
   3.53553391       3.53553391      -5.00000000       150.877197       1.57079601    
   3.53553391       3.53553391      -4.00000000       150.877197       1.57079601    
   3.93283010       3.01776695      -4.00000000       150.877197       1.57079601    
   3.93283010       3.01776695      -5.00000000       150.877197       1.57079601    
   3.53553391       3.53553391      -4.00000000       150.993713       1.57079566    
   3.53553391       3.53553391      -3.00000000       150.993713       1.57079566    
   3.93283010       3.01776695      -3.00000000       150.993713       1.57079566    
   3.93283010       3.01776695      -4.00000000       150.993713       1.57079566    
   3.53553391       3.53553391      -3.00000000       150.946808       1.57079542    
   3.53553391       3.53553391      -2.00000000       150.946808       1.57079542    
   3.93283010       3.01776695      -2.00000000       150.946808       1.57079542    
   3.93283010       3.01776695      -3.00000000       150.946808       1.57079542    
   3.53553391       3.53553391      -2.00000000       150.972702       1.57079506    
   3.53553391       3.53553391      -1.00000000       150.972702       1.57079506    
   3.93283010       3.01776695      -1.00000000       150.972702       1.57079506    
   3.93283010       3.01776695      -2.00000000       150.972702       1.57079506    
   3.53553391       3.53553391      -1.00000000       150.615494       1.57079554    
   3.53553391       3.53553391       0.00000000       150.615494       1.57079554    
   3.93283010       3.01776695       0.00000000       150.615494       1.57079554    
   3.93283010       3.01776695      -1.00000000       150.615494       1.57079554    
   3.93283010       3.01776695      -10.0000000       147.546799      -1.57079625    
   3.93283010       3.01776695      -9.00000000       147.546799      -1.57079625    
   4.33012676       2.50000000      -9.00000000       147.546799      -1.57079625    
   4.33012676       2.50000000      -10.0000000       147.546799      -1.57079625    
   3.93283010       3.01776695      -9.00000000       150.890533      -1.57079625    
   3.93283010       3.01776695      -8.00000000       150.890533      -1.57079625    
   4.33012676       2.50000000      -8.00000000       150.890533      -1.57079625    
   4.33012676       2.50000000      -9.00000000       150.890533      -1.57079625    
   3.93283010       3.01776695      -8.00000000       150.909103      -1.57079613    
   3.93283010       3.01776695      -7.00000000       150.909103      -1.57079613    
   4.33012676       2.50000000      -7.00000000       150.909103      -1.57079613    
   4.33012676       2.50000000      -8.00000000       150.909103      -1.57079613    
   3.93283010       3.01776695      -7.00000000       150.933365      -1.57079625    
   3.93283010       3.01776695      -6.00000000       150.933365      -1.57079625    
   4.33012676       2.50000000      -6.00000000       150.933365      -1.57079625    
   4.33012676       2.50000000      -7.00000000       150.933365      -1.57079625    
   3.93283010       3.01776695      -6.00000000       150.876373      -1.57079601    
   3.93283010       3.01776695      -5.00000000       150.876373      -1.57079601    
   4.33012676       2.50000000      -5.00000000       150.876373      -1.57079601    
   4.33012676       2.50000000      -6.00000000       150.876373      -1.57079601    
   3.93283010       3.01776695      -5.00000000       150.876007      -1.57079625    
   3.93283010       3.01776695      -4.00000000       150.876007      -1.57079625    
   4.33012676       2.50000000      -4.00000000       150.876007      -1.57079625    
   4.33012676       2.50000000      -5.00000000       150.876007      -1.57079625    
   3.93283010       3.01776695      -4.00000000       150.992279      -1.57079589    
   3.93283010       3.01776695      -3.00000000       150.992279      -1.57079589    
   4.33012676       2.50000000      -3.00000000       150.992279      -1.57079589    
   4.33012676       2.50000000      -4.00000000       150.992279      -1.57079589    
   3.93283010       3.01776695      -3.00000000       150.946030      -1.57079542    
   3.93283010       3.01776695      -2.00000000       150.946030      -1.57079542    
   4.33012676       2.50000000      -2.00000000       150.946030      -1.57079542    
   4.33012676       2.50000000      -3.00000000       150.946030      -1.57079542    
   3.93283010       3.01776695      -2.00000000       150.972183      -1.57079518    
   3.93283010       3.01776695      -1.00000000       150.972183      -1.57079518    
   4.33012676       2.50000000      -1.00000000       150.972183      -1.57079518    
   4.33012676       2.50000000      -2.00000000       150.972183      -1.57079518    
   3.93283010       3.01776695      -1.00000000       150.615723      -1.57079506    
   3.93283010       3.01776695       0.00000000       150.615723      -1.57079506    
   4.33012676       2.50000000       0.00000000       150.615723      -1.57079506    
   4.33012676       2.50000000      -1.00000000       150.615723      -1.57079506    
   2.50000000       4.33012676      -10.0000000       147.547256       1.57079625    
   2.50000000       4.33012676      -9.00000000       147.547256       1.57079625    
   3.01776695       3.93283010      -9.00000000       147.547256       1.57079625    
   3.01776695       3.93283010      -10.0000000       147.547256       1.57079625    
   2.50000000       4.33012676      -9.00000000       150.890732       1.57079625    
   2.50000000       4.33012676      -8.00000000       150.890732       1.57079625    
   3.01776695       3.93283010      -8.00000000       150.890732       1.57079625    
   3.01776695       3.93283010      -9.00000000       150.890732       1.57079625    
   2.50000000       4.33012676      -8.00000000       150.909225       1.57079625    
   2.50000000       4.33012676      -7.00000000       150.909225       1.57079625    
   3.01776695       3.93283010      -7.00000000       150.909225       1.57079625    
   3.01776695       3.93283010      -8.00000000       150.909225       1.57079625    
   2.50000000       4.33012676      -7.00000000       150.934113       1.57079613    
   2.50000000       4.33012676      -6.00000000       150.934113       1.57079613    
   3.01776695       3.93283010      -6.00000000       150.934113       1.57079613    
   3.01776695       3.93283010      -7.00000000       150.934113       1.57079613    
   2.50000000       4.33012676      -6.00000000       150.876389       1.57079637    
   2.50000000       4.33012676      -5.00000000       150.876389       1.57079637    
   3.01776695       3.93283010      -5.00000000       150.876389       1.57079637    
   3.01776695       3.93283010      -6.00000000       150.876389       1.57079637    
   2.50000000       4.33012676      -5.00000000       150.876526       1.57079625    
   2.50000000       4.33012676      -4.00000000       150.876526       1.57079625    
   3.01776695       3.93283010      -4.00000000       150.876526       1.57079625    
   3.01776695       3.93283010      -5.00000000       150.876526       1.57079625    
   2.50000000       4.33012676      -4.00000000       150.992828       1.57079601    
   2.50000000       4.33012676      -3.00000000       150.992828       1.57079601    
   3.01776695       3.93283010      -3.00000000       150.992828       1.57079601    
   3.01776695       3.93283010      -4.00000000       150.992828       1.57079601    
   2.50000000       4.33012676      -3.00000000       150.945877       1.57079613    
   2.50000000       4.33012676      -2.00000000       150.945877       1.57079613    
   3.01776695       3.93283010      -2.00000000       150.945877       1.57079613    
   3.01776695       3.93283010      -3.00000000       150.945877       1.57079613    
   2.50000000       4.33012676      -2.00000000       150.971390       1.57079494    
   2.50000000       4.33012676      -1.00000000       150.971390       1.57079494    
   3.01776695       3.93283010      -1.00000000       150.971390       1.57079494    
   3.01776695       3.93283010      -2.00000000       150.971390       1.57079494    
   2.50000000       4.33012676      -1.00000000       150.614410       1.57079530    
   2.50000000       4.33012676       0.00000000       150.614410       1.57079530    
   3.01776695       3.93283010       0.00000000       150.614410       1.57079530    
   3.01776695       3.93283010      -1.00000000       150.614410       1.57079530    
   3.01776695       3.93283010      -10.0000000       147.547836      -1.57079625    
   3.01776695       3.93283010      -9.00000000       147.547836      -1.57079625    
   3.53553391       3.53553391      -9.00000000       147.547836      -1.57079625    
   3.53553391       3.53553391      -10.0000000       147.547836      -1.57079625    
   3.01776695       3.93283010      -9.00000000       150.891724      -1.57079625    
   3.01776695       3.93283010      -8.00000000       150.891724      -1.57079625    
   3.53553391       3.53553391      -8.00000000       150.891724      -1.57079625    
   3.53553391       3.53553391      -9.00000000       150.891724      -1.57079625    
   3.01776695       3.93283010      -8.00000000       150.910294      -1.57079625    
   3.01776695       3.93283010      -7.00000000       150.910294      -1.57079625    
   3.53553391       3.53553391      -7.00000000       150.910294      -1.57079625    
   3.53553391       3.53553391      -8.00000000       150.910294      -1.57079625    
   3.01776695       3.93283010      -7.00000000       150.934479      -1.57079613    
   3.01776695       3.93283010      -6.00000000       150.934479      -1.57079613    
   3.53553391       3.53553391      -6.00000000       150.934479      -1.57079613    
   3.53553391       3.53553391      -7.00000000       150.934479      -1.57079613    
   3.01776695       3.93283010      -6.00000000       150.877396      -1.57079601    
   3.01776695       3.93283010      -5.00000000       150.877396      -1.57079601    
   3.53553391       3.53553391      -5.00000000       150.877396      -1.57079601    
   3.53553391       3.53553391      -6.00000000       150.877396      -1.57079601    
   3.01776695       3.93283010      -5.00000000       150.877167      -1.57079601    
   3.01776695       3.93283010      -4.00000000       150.877167      -1.57079601    
   3.53553391       3.53553391      -4.00000000       150.877167      -1.57079601    
   3.53553391       3.53553391      -5.00000000       150.877167      -1.57079601    
   3.01776695       3.93283010      -4.00000000       150.992844      -1.57079589    
   3.01776695       3.93283010      -3.00000000       150.992844      -1.57079589    
   3.53553391       3.53553391      -3.00000000       150.992844      -1.57079589    
   3.53553391       3.53553391      -4.00000000       150.992844      -1.57079589    
   3.01776695       3.93283010      -3.00000000       150.947144      -1.57079613    
   3.01776695       3.93283010      -2.00000000       150.947144      -1.57079613    
   3.53553391       3.53553391      -2.00000000       150.947144      -1.57079613    
   3.53553391       3.53553391      -3.00000000       150.947144      -1.57079613    
   3.01776695       3.93283010      -2.00000000       150.973099      -1.57079637    
   3.01776695       3.93283010      -1.00000000       150.973099      -1.57079637    
   3.53553391       3.53553391      -1.00000000       150.973099      -1.57079637    
   3.53553391       3.53553391      -2.00000000       150.973099      -1.57079637    
   3.01776695       3.93283010      -1.00000000       150.616364      -1.57079554    
   3.01776695       3.93283010       0.00000000       150.616364      -1.57079554    
   3.53553391       3.53553391       0.00000000       150.616364      -1.57079554    
   3.53553391       3.53553391      -1.00000000       150.616364      -1.57079554    
   1.29409504       4.82962894      -10.0000000       147.548035       1.57079625    
   1.29409504       4.82962894      -9.00000000       147.548035       1.57079625    
   1.89704800       4.57987785      -9.00000000       147.548035       1.57079625    
   1.89704800       4.57987785      -10.0000000       147.548035       1.57079625    
   1.29409504       4.82962894      -9.00000000       150.892105       1.57079625    
   1.29409504       4.82962894      -8.00000000       150.892105       1.57079625    
   1.89704800       4.57987785      -8.00000000       150.892105       1.57079625    
   1.89704800       4.57987785      -9.00000000       150.892105       1.57079625    
   1.29409504       4.82962894      -8.00000000       150.910355       1.57079613    
   1.29409504       4.82962894      -7.00000000       150.910355       1.57079613    
   1.89704800       4.57987785      -7.00000000       150.910355       1.57079613    
   1.89704800       4.57987785      -8.00000000       150.910355       1.57079613    
   1.29409504       4.82962894      -7.00000000       150.935089       1.57079613    
   1.29409504       4.82962894      -6.00000000       150.935089       1.57079613    
   1.89704800       4.57987785      -6.00000000       150.935089       1.57079613    
   1.89704800       4.57987785      -7.00000000       150.935089       1.57079613    
   1.29409504       4.82962894      -6.00000000       150.877869       1.57079601    
   1.29409504       4.82962894      -5.00000000       150.877869       1.57079601    
   1.89704800       4.57987785      -5.00000000       150.877869       1.57079601    
   1.89704800       4.57987785      -6.00000000       150.877869       1.57079601    
   1.29409504       4.82962894      -5.00000000       150.877869       1.57079613    
   1.29409504       4.82962894      -4.00000000       150.877869       1.57079613    
   1.89704800       4.57987785      -4.00000000       150.877869       1.57079613    
   1.89704800       4.57987785      -5.00000000       150.877869       1.57079613    
   1.29409504       4.82962894      -4.00000000       150.993805       1.57079601    
   1.29409504       4.82962894      -3.00000000       150.993805       1.57079601    
   1.89704800       4.57987785      -3.00000000       150.993805       1.57079601    