 VARIABLES="X" "Y" "Z" "abs(p) (Pa)" "angle(p) (rad)"
ZONE N=   1080,E =     600, F=FEPOINT, ET=QUADRILATERAL
   4.82962894       1.29409504      -10.0000000       92.8755493       1.57079720    
   4.82962894       1.29409504      -9.00000000       92.8755493       1.57079720    
   4.91481400      0.647047520      -9.00000000       92.8755493       1.57079720    
   4.91481400      0.647047520      -10.0000000       92.8755493       1.57079720    
   4.82962894       1.29409504      -9.00000000       94.9803696       1.57079732    
   4.82962894       1.29409504      -8.00000000       94.9803696       1.57079732    
   4.91481400      0.647047520      -8.00000000       94.9803696       1.57079732    
   4.91481400      0.647047520      -9.00000000       94.9803696       1.57079732    
   4.82962894       1.29409504      -8.00000000       94.9920044       1.57079732    
   4.82962894       1.29409504      -7.00000000       94.9920044       1.57079732    
   4.91481400      0.647047520      -7.00000000       94.9920044       1.57079732    
   4.91481400      0.647047520      -8.00000000       94.9920044       1.57079732    
   4.82962894       1.29409504      -7.00000000       95.0074005       1.57079720    
   4.82962894       1.29409504      -6.00000000       95.0074005       1.57079720    
   4.91481400      0.647047520      -6.00000000       95.0074005       1.57079720    
   4.91481400      0.647047520      -7.00000000       95.0074005       1.57079720    
   4.82962894       1.29409504      -6.00000000       94.9705505       1.57079756    
   4.82962894       1.29409504      -5.00000000       94.9705505       1.57079756    
   4.91481400      0.647047520      -5.00000000       94.9705505       1.57079756    
   4.91481400      0.647047520      -6.00000000       94.9705505       1.57079756    
   4.82962894       1.29409504      -5.00000000       94.9699860       1.57079744    
   4.82962894       1.29409504      -4.00000000       94.9699860       1.57079744    
   4.91481400      0.647047520      -4.00000000       94.9699860       1.57079744    
   4.91481400      0.647047520      -5.00000000       94.9699860       1.57079744    
   4.82962894       1.29409504      -4.00000000       95.0429688       1.57079732    
   4.82962894       1.29409504      -3.00000000       95.0429688       1.57079732    
   4.91481400      0.647047520      -3.00000000       95.0429688       1.57079732    
   4.91481400      0.647047520      -4.00000000       95.0429688       1.57079732    
   4.82962894       1.29409504      -3.00000000       95.0123291       1.57079732    
   4.82962894       1.29409504      -2.00000000       95.0123291       1.57079732    
   4.91481400      0.647047520      -2.00000000       95.0123291       1.57079732    
   4.91481400      0.647047520      -3.00000000       95.0123291       1.57079732    
   4.82962894       1.29409504      -2.00000000       95.0286789       1.57079792    
   4.82962894       1.29409504      -1.00000000       95.0286789       1.57079792    
   4.91481400      0.647047520      -1.00000000       95.0286789       1.57079792    
   4.91481400      0.647047520      -2.00000000       95.0286789       1.57079792    
   4.82962894       1.29409504      -1.00000000       94.6397247       1.57079732    
   4.82962894       1.29409504       0.00000000       94.6397247       1.57079732    
   4.91481400      0.647047520       0.00000000       94.6397247       1.57079732    
   4.91481400      0.647047520      -1.00000000       94.6397247       1.57079732    
   4.91481400      0.647047520      -10.0000000       92.8772278      -1.57079554    
   4.91481400      0.647047520      -9.00000000       92.8772278      -1.57079554    
   5.00000000       0.00000000      -9.00000000       92.8772278      -1.57079554    
   5.00000000       0.00000000      -10.0000000       92.8772278      -1.57079554    
   4.91481400      0.647047520      -9.00000000       94.9821777      -1.57079542    
   4.91481400      0.647047520      -8.00000000       94.9821777      -1.57079542    
   5.00000000       0.00000000      -8.00000000       94.9821777      -1.57079542    
   5.00000000       0.00000000      -9.00000000       94.9821777      -1.57079542    
   4.91481400      0.647047520      -8.00000000       94.9942474      -1.57079566    
   4.91481400      0.647047520      -7.00000000       94.9942474      -1.57079566    
   5.00000000       0.00000000      -7.00000000       94.9942474      -1.57079566    
   5.00000000       0.00000000      -8.00000000       94.9942474      -1.57079566    
   4.91481400      0.647047520      -7.00000000       95.0097351      -1.57079554    
   4.91481400      0.647047520      -6.00000000       95.0097351      -1.57079554    
   5.00000000       0.00000000      -6.00000000       95.0097351      -1.57079554    
   5.00000000       0.00000000      -7.00000000       95.0097351      -1.57079554    
   4.91481400      0.647047520      -6.00000000       94.9727249      -1.57079566    
   4.91481400      0.647047520      -5.00000000       94.9727249      -1.57079566    
   5.00000000       0.00000000      -5.00000000       94.9727249      -1.57079566    
   5.00000000       0.00000000      -6.00000000       94.9727249      -1.57079566    
   4.91481400      0.647047520      -5.00000000       94.9724045      -1.57079542    
   4.91481400      0.647047520      -4.00000000       94.9724045      -1.57079542    
   5.00000000       0.00000000      -4.00000000       94.9724045      -1.57079542    
   5.00000000       0.00000000      -5.00000000       94.9724045      -1.57079542    
   4.91481400      0.647047520      -4.00000000       95.0448380      -1.57079530    
   4.91481400      0.647047520      -3.00000000       95.0448380      -1.57079530    
   5.00000000       0.00000000      -3.00000000       95.0448380      -1.57079530    
   5.00000000       0.00000000      -4.00000000       95.0448380      -1.57079530    
   4.91481400      0.647047520      -3.00000000       95.0143814      -1.57079494    
   4.91481400      0.647047520      -2.00000000       95.0143814      -1.57079494    
   5.00000000       0.00000000      -2.00000000       95.0143814      -1.57079494    
   5.00000000       0.00000000      -3.00000000       95.0143814      -1.57079494    
   4.91481400      0.647047520      -2.00000000       95.0305099      -1.57079589    
   4.91481400      0.647047520      -1.00000000       95.0305099      -1.57079589    
   5.00000000       0.00000000      -1.00000000       95.0305099      -1.57079589    
   5.00000000       0.00000000      -2.00000000       95.0305099      -1.57079589    
   4.91481400      0.647047520      -1.00000000       94.6417694      -1.57079482    
   4.91481400      0.647047520       0.00000000       94.6417694      -1.57079482    
   5.00000000       0.00000000       0.00000000       94.6417694      -1.57079482    
   5.00000000       0.00000000      -1.00000000       94.6417694      -1.57079482    
   4.33012676       2.50000000      -10.0000000       92.8767471       1.57079720    
   4.33012676       2.50000000      -9.00000000       92.8767471       1.57079720    
   4.57987785       1.89704800      -9.00000000       92.8767471       1.57079720    
   4.57987785       1.89704800      -10.0000000       92.8767471       1.57079720    
   4.33012676       2.50000000      -9.00000000       94.9814606       1.57079709    
   4.33012676       2.50000000      -8.00000000       94.9814606       1.57079709    
   4.57987785       1.89704800      -8.00000000       94.9814606       1.57079709    
   4.57987785       1.89704800      -9.00000000       94.9814606       1.57079709    
   4.33012676       2.50000000      -8.00000000       94.9932480       1.57079709    
   4.33012676       2.50000000      -7.00000000       94.9932480       1.57079709    
   4.57987785       1.89704800      -7.00000000       94.9932480       1.57079709    
   4.57987785       1.89704800      -8.00000000       94.9932480       1.57079709    
   4.33012676       2.50000000      -7.00000000       95.0086899       1.57079709    
   4.33012676       2.50000000      -6.00000000       95.0086899       1.57079709    
   4.57987785       1.89704800      -6.00000000       95.0086899       1.57079709    
   4.57987785       1.89704800      -7.00000000       95.0086899       1.57079709    
   4.33012676       2.50000000      -6.00000000       94.9719238       1.57079780    
   4.33012676       2.50000000      -5.00000000       94.9719238       1.57079780    
   4.57987785       1.89704800      -5.00000000       94.9719238       1.57079780    
   4.57987785       1.89704800      -6.00000000       94.9719238       1.57079780    
   4.33012676       2.50000000      -5.00000000       94.9713821       1.57079768    
   4.33012676       2.50000000      -4.00000000       94.9713821       1.57079768    
   4.57987785       1.89704800      -4.00000000       94.9713821       1.57079768    
   4.57987785       1.89704800      -5.00000000       94.9713821       1.57079768    
   4.33012676       2.50000000      -4.00000000       95.0442734       1.57079828    
   4.33012676       2.50000000      -3.00000000       95.0442734       1.57079828    
   4.57987785       1.89704800      -3.00000000       95.0442734       1.57079828    
   4.57987785       1.89704800      -4.00000000       95.0442734       1.57079828    
   4.33012676       2.50000000      -3.00000000       95.0135269       1.57079709    
   4.33012676       2.50000000      -2.00000000       95.0135269       1.57079709    
   4.57987785       1.89704800      -2.00000000       95.0135269       1.57079709    
   4.57987785       1.89704800      -3.00000000       95.0135269       1.57079709    
   4.33012676       2.50000000      -2.00000000       95.0299072       1.57079780    
   4.33012676       2.50000000      -1.00000000       95.0299072       1.57079780    
   4.57987785       1.89704800      -1.00000000       95.0299072       1.57079780    
   4.57987785       1.89704800      -2.00000000       95.0299072       1.57079780    
   4.33012676       2.50000000      -1.00000000       94.6408157       1.57079840    
   4.33012676       2.50000000       0.00000000       94.6408157       1.57079840    
   4.57987785       1.89704800       0.00000000       94.6408157       1.57079840    
   4.57987785       1.89704800      -1.00000000       94.6408157       1.57079840    
   4.57987785       1.89704800      -10.0000000       92.8772507      -1.57079542    
   4.57987785       1.89704800      -9.00000000       92.8772507      -1.57079542    
   4.82962894       1.29409504      -9.00000000       92.8772507      -1.57079542    
   4.82962894       1.29409504      -10.0000000       92.8772507      -1.57079542    
   4.57987785       1.89704800      -9.00000000       94.9822006      -1.57079518    
   4.57987785       1.89704800      -8.00000000       94.9822006      -1.57079518    
   4.82962894       1.29409504      -8.00000000       94.9822006      -1.57079518    
   4.82962894       1.29409504      -9.00000000       94.9822006      -1.57079518    
   4.57987785       1.89704800      -8.00000000       94.9941864      -1.57079542    
   4.57987785       1.89704800      -7.00000000       94.9941864      -1.57079542    
   4.82962894       1.29409504      -7.00000000       94.9941864      -1.57079542    
   4.82962894       1.29409504      -8.00000000       94.9941864      -1.57079542    
   4.57987785       1.89704800      -7.00000000       95.0097504      -1.57079554    
   4.57987785       1.89704800      -6.00000000       95.0097504      -1.57079554    
   4.82962894       1.29409504      -6.00000000       95.0097504      -1.57079554    
   4.82962894       1.29409504      -7.00000000       95.0097504      -1.57079554    
   4.57987785       1.89704800      -6.00000000       94.9730225      -1.57079518    
   4.57987785       1.89704800      -5.00000000       94.9730225      -1.57079518    
   4.82962894       1.29409504      -5.00000000       94.9730225      -1.57079518    
   4.82962894       1.29409504      -6.00000000       94.9730225      -1.57079518    
   4.57987785       1.89704800      -5.00000000       94.9724426      -1.57079482    
   4.57987785       1.89704800      -4.00000000       94.9724426      -1.57079482    
   4.82962894       1.29409504      -4.00000000       94.9724426      -1.57079482    
   4.82962894       1.29409504      -5.00000000       94.9724426      -1.57079482    
   4.57987785       1.89704800      -4.00000000       95.0447388      -1.57079530    
   4.57987785       1.89704800      -3.00000000       95.0447388      -1.57079530    
   4.82962894       1.29409504      -3.00000000       95.0447388      -1.57079530    
   4.82962894       1.29409504      -4.00000000       95.0447388      -1.57079530    
   4.57987785       1.89704800      -3.00000000       95.0142670      -1.57079494    
   4.57987785       1.89704800      -2.00000000       95.0142670      -1.57079494    
   4.82962894       1.29409504      -2.00000000       95.0142670      -1.57079494    
   4.82962894       1.29409504      -3.00000000       95.0142670      -1.57079494    
   4.57987785       1.89704800      -2.00000000       95.0307465      -1.57079506    
   4.57987785       1.89704800      -1.00000000       95.0307465      -1.57079506    
   4.82962894       1.29409504      -1.00000000       95.0307465      -1.57079506    
   4.82962894       1.29409504      -2.00000000       95.0307465      -1.57079506    
   4.57987785       1.89704800      -1.00000000       94.6418839      -1.57079518    
   4.57987785       1.89704800       0.00000000       94.6418839      -1.57079518    
   4.82962894       1.29409504       0.00000000       94.6418839      -1.57079518    
   4.82962894       1.29409504      -1.00000000       94.6418839      -1.57079518    
   3.53553391       3.53553391      -10.0000000       92.8771439       1.57079697    
   3.53553391       3.53553391      -9.00000000       92.8771439       1.57079697    
   3.93283010       3.01776695      -9.00000000       92.8771439       1.57079697    
   3.93283010       3.01776695      -10.0000000       92.8771439       1.57079697    
   3.53553391       3.53553391      -9.00000000       94.9819946       1.57079720    
   3.53553391       3.53553391      -8.00000000       94.9819946       1.57079720    
   3.93283010       3.01776695      -8.00000000       94.9819946       1.57079720    
   3.93283010       3.01776695      -9.00000000       94.9819946       1.57079720    
   3.53553391       3.53553391      -8.00000000       94.9937592       1.57079697    
   3.53553391       3.53553391      -7.00000000       94.9937592       1.57079697    
   3.93283010       3.01776695      -7.00000000       94.9937592       1.57079697    
   3.93283010       3.01776695      -8.00000000       94.9937592       1.57079697    
   3.53553391       3.53553391      -7.00000000       95.0090866       1.57079732    
   3.53553391       3.53553391      -6.00000000       95.0090866       1.57079732    
   3.93283010       3.01776695      -6.00000000       95.0090866       1.57079732    
   3.93283010       3.01776695      -7.00000000       95.0090866       1.57079732    
   3.53553391       3.53553391      -6.00000000       94.9722595       1.57079732    
   3.53553391       3.53553391      -5.00000000       94.9722595       1.57079732    
   3.93283010       3.01776695      -5.00000000       94.9722595       1.57079732    
   3.93283010       3.01776695      -6.00000000       94.9722595       1.57079732    
   3.53553391       3.53553391      -5.00000000       94.9717941       1.57079768    
   3.53553391       3.53553391      -4.00000000       94.9717941       1.57079768    
   3.93283010       3.01776695      -4.00000000       94.9717941       1.57079768    
   3.93283010       3.01776695      -5.00000000       94.9717941       1.57079768    
   3.53553391       3.53553391      -4.00000000       95.0445175       1.57079768    
   3.53553391       3.53553391      -3.00000000       95.0445175       1.57079768    
   3.93283010       3.01776695      -3.00000000       95.0445175       1.57079768    
   3.93283010       3.01776695      -4.00000000       95.0445175       1.57079768    
   3.53553391       3.53553391      -3.00000000       95.0141144       1.57079756    
   3.53553391       3.53553391      -2.00000000       95.0141144       1.57079756    
   3.93283010       3.01776695      -2.00000000       95.0141144       1.57079756    
   3.93283010       3.01776695      -3.00000000       95.0141144       1.57079756    
   3.53553391       3.53553391      -2.00000000       95.0304108       1.57079768    
   3.53553391       3.53553391      -1.00000000       95.0304108       1.57079768    
   3.93283010       3.01776695      -1.00000000       95.0304108       1.57079768    
   3.93283010       3.01776695      -2.00000000       95.0304108       1.57079768    
   3.53553391       3.53553391      -1.00000000       94.6414871       1.57079792    
   3.53553391       3.53553391       0.00000000       94.6414871       1.57079792    
   3.93283010       3.01776695       0.00000000       94.6414871       1.57079792    
   3.93283010       3.01776695      -1.00000000       94.6414871       1.57079792    
   3.93283010       3.01776695      -10.0000000       92.8763123      -1.57079542    
   3.93283010       3.01776695      -9.00000000       92.8763123      -1.57079542    
   4.33012676       2.50000000      -9.00000000       92.8763123      -1.57079542    
   4.33012676       2.50000000      -10.0000000       92.8763123      -1.57079542    
   3.93283010       3.01776695      -9.00000000       94.9812469      -1.57079554    
   3.93283010       3.01776695      -8.00000000       94.9812469      -1.57079554    
   4.33012676       2.50000000      -8.00000000       94.9812469      -1.57079554    
   4.33012676       2.50000000      -9.00000000       94.9812469      -1.57079554    
   3.93283010       3.01776695      -8.00000000       94.9932480      -1.57079577    
   3.93283010       3.01776695      -7.00000000       94.9932480      -1.57079577    
   4.33012676       2.50000000      -7.00000000       94.9932480      -1.57079577    
   4.33012676       2.50000000      -8.00000000       94.9932480      -1.57079577    
   3.93283010       3.01776695      -7.00000000       95.0086212      -1.57079554    
   3.93283010       3.01776695      -6.00000000       95.0086212      -1.57079554    
   4.33012676       2.50000000      -6.00000000       95.0086212      -1.57079554    
   4.33012676       2.50000000      -7.00000000       95.0086212      -1.57079554    
   3.93283010       3.01776695      -6.00000000       94.9717789      -1.57079494    
   3.93283010       3.01776695      -5.00000000       94.9717789      -1.57079494    
   4.33012676       2.50000000      -5.00000000       94.9717789      -1.57079494    
   4.33012676       2.50000000      -6.00000000       94.9717789      -1.57079494    
   3.93283010       3.01776695      -5.00000000       94.9713593      -1.57079506    
   3.93283010       3.01776695      -4.00000000       94.9713593      -1.57079506    
   4.33012676       2.50000000      -4.00000000       94.9713593      -1.57079506    
   4.33012676       2.50000000      -5.00000000       94.9713593      -1.57079506    
   3.93283010       3.01776695      -4.00000000       95.0441589      -1.57079494    
   3.93283010       3.01776695      -3.00000000       95.0441589      -1.57079494    
   4.33012676       2.50000000      -3.00000000       95.0441589      -1.57079494    
   4.33012676       2.50000000      -4.00000000       95.0441589      -1.57079494    
   3.93283010       3.01776695      -3.00000000       95.0134811      -1.57079530    
   3.93283010       3.01776695      -2.00000000       95.0134811      -1.57079530    
   4.33012676       2.50000000      -2.00000000       95.0134811      -1.57079530    
   4.33012676       2.50000000      -3.00000000       95.0134811      -1.57079530    
   3.93283010       3.01776695      -2.00000000       95.0296860      -1.57079530    
   3.93283010       3.01776695      -1.00000000       95.0296860      -1.57079530    
   4.33012676       2.50000000      -1.00000000       95.0296860      -1.57079530    
   4.33012676       2.50000000      -2.00000000       95.0296860      -1.57079530    
   3.93283010       3.01776695      -1.00000000       94.6410065      -1.57079494    
   3.93283010       3.01776695       0.00000000       94.6410065      -1.57079494    
   4.33012676       2.50000000       0.00000000       94.6410065      -1.57079494    
   4.33012676       2.50000000      -1.00000000       94.6410065      -1.57079494    
   2.50000000       4.33012676      -10.0000000       92.8765945       1.57079732    
   2.50000000       4.33012676      -9.00000000       92.8765945       1.57079732    
   3.01776695       3.93283010      -9.00000000       92.8765945       1.57079732    
   3.01776695       3.93283010      -10.0000000       92.8765945       1.57079732    
   2.50000000       4.33012676      -9.00000000       94.9813538       1.57079732    
   2.50000000       4.33012676      -8.00000000       94.9813538       1.57079732    
   3.01776695       3.93283010      -8.00000000       94.9813538       1.57079732    
   3.01776695       3.93283010      -9.00000000       94.9813538       1.57079732    
   2.50000000       4.33012676      -8.00000000       94.9930344       1.57079720    
   2.50000000       4.33012676      -7.00000000       94.9930344       1.57079720    
   3.01776695       3.93283010      -7.00000000       94.9930344       1.57079720    
   3.01776695       3.93283010      -8.00000000       94.9930344       1.57079720    
   2.50000000       4.33012676      -7.00000000       95.0087051       1.57079720    
   2.50000000       4.33012676      -6.00000000       95.0087051       1.57079720    
   3.01776695       3.93283010      -6.00000000       95.0087051       1.57079720    
   3.01776695       3.93283010      -7.00000000       95.0087051       1.57079720    
   2.50000000       4.33012676      -6.00000000       94.9716415       1.57079744    
   2.50000000       4.33012676      -5.00000000       94.9716415       1.57079744    
   3.01776695       3.93283010      -5.00000000       94.9716415       1.57079744    
   3.01776695       3.93283010      -6.00000000       94.9716415       1.57079744    
   2.50000000       4.33012676      -5.00000000       94.9711533       1.57079768    
   2.50000000       4.33012676      -4.00000000       94.9711533       1.57079768    
   3.01776695       3.93283010      -4.00000000       94.9711533       1.57079768    
   3.01776695       3.93283010      -5.00000000       94.9711533       1.57079768    
   2.50000000       4.33012676      -4.00000000       95.0440979       1.57079732    
   2.50000000       4.33012676      -3.00000000       95.0440979       1.57079732    
   3.01776695       3.93283010      -3.00000000       95.0440979       1.57079732    
   3.01776695       3.93283010      -4.00000000       95.0440979       1.57079732    
   2.50000000       4.33012676      -3.00000000       95.0130768       1.57079709    
   2.50000000       4.33012676      -2.00000000       95.0130768       1.57079709    
   3.01776695       3.93283010      -2.00000000       95.0130768       1.57079709    
   3.01776695       3.93283010      -3.00000000       95.0130768       1.57079709    
   2.50000000       4.33012676      -2.00000000       95.0296478       1.57079756    
   2.50000000       4.33012676      -1.00000000       95.0296478       1.57079756    
   3.01776695       3.93283010      -1.00000000       95.0296478       1.57079756    
   3.01776695       3.93283010      -2.00000000       95.0296478       1.57079756    
   2.50000000       4.33012676      -1.00000000       94.6407623       1.57079709    
   2.50000000       4.33012676       0.00000000       94.6407623       1.57079709    
   3.01776695       3.93283010       0.00000000       94.6407623       1.57079709    
   3.01776695       3.93283010      -1.00000000       94.6407623       1.57079709    
   3.01776695       3.93283010      -10.0000000       92.8769379      -1.57079542    
   3.01776695       3.93283010      -9.00000000       92.8769379      -1.57079542    
   3.53553391       3.53553391      -9.00000000       92.8769379      -1.57079542    
   3.53553391       3.53553391      -10.0000000       92.8769379      -1.57079542    
   3.01776695       3.93283010      -9.00000000       94.9818344      -1.57079554    
   3.01776695       3.93283010      -8.00000000       94.9818344      -1.57079554    
   3.53553391       3.53553391      -8.00000000       94.9818344      -1.57079554    
   3.53553391       3.53553391      -9.00000000       94.9818344      -1.57079554    
   3.01776695       3.93283010      -8.00000000       94.9938583      -1.57079542    
   3.01776695       3.93283010      -7.00000000       94.9938583      -1.57079542    
   3.53553391       3.53553391      -7.00000000       94.9938583      -1.57079542    
   3.53553391       3.53553391      -8.00000000       94.9938583      -1.57079542    
   3.01776695       3.93283010      -7.00000000       95.0092773      -1.57079554    
   3.01776695       3.93283010      -6.00000000       95.0092773      -1.57079554    
   3.53553391       3.53553391      -6.00000000       95.0092773      -1.57079554    
   3.53553391       3.53553391      -7.00000000       95.0092773      -1.57079554    
   3.01776695       3.93283010      -6.00000000       94.9723740      -1.57079470    
   3.01776695       3.93283010      -5.00000000       94.9723740      -1.57079470    
   3.53553391       3.53553391      -5.00000000       94.9723740      -1.57079470    
   3.53553391       3.53553391      -6.00000000       94.9723740      -1.57079470    
   3.01776695       3.93283010      -5.00000000       94.9719238      -1.57079470    
   3.01776695       3.93283010      -4.00000000       94.9719238      -1.57079470    
   3.53553391       3.53553391      -4.00000000       94.9719238      -1.57079470    
   3.53553391       3.53553391      -5.00000000       94.9719238      -1.57079470    
   3.01776695       3.93283010      -4.00000000       95.0443878      -1.57079494    
   3.01776695       3.93283010      -3.00000000       95.0443878      -1.57079494    
   3.53553391       3.53553391      -3.00000000       95.0443878      -1.57079494    
   3.53553391       3.53553391      -4.00000000       95.0443878      -1.57079494    
   3.01776695       3.93283010      -3.00000000       95.0139008      -1.57079530    
   3.01776695       3.93283010      -2.00000000       95.0139008      -1.57079530    
   3.53553391       3.53553391      -2.00000000       95.0139008      -1.57079530    
   3.53553391       3.53553391      -3.00000000       95.0139008      -1.57079530    
   3.01776695       3.93283010      -2.00000000       95.0299301      -1.57079494    
   3.01776695       3.93283010      -1.00000000       95.0299301      -1.57079494    
   3.53553391       3.53553391      -1.00000000       95.0299301      -1.57079494    
   3.53553391       3.53553391      -2.00000000       95.0299301      -1.57079494    
   3.01776695       3.93283010      -1.00000000       94.6416092      -1.57079422    
   3.01776695       3.93283010       0.00000000       94.6416092      -1.57079422    
   3.53553391       3.53553391       0.00000000       94.6416092      -1.57079422    
   3.53553391       3.53553391      -1.00000000       94.6416092      -1.57079422    
   1.29409504       4.82962894      -10.0000000       92.8771057       1.57079709    
   1.29409504       4.82962894      -9.00000000       92.8771057       1.57079709    
   1.89704800       4.57987785      -9.00000000       92.8771057       1.57079709    
   1.89704800       4.57987785      -10.0000000       92.8771057       1.57079709    
   1.29409504       4.82962894      -9.00000000       94.9822464       1.57079720    
   1.29409504       4.82962894      -8.00000000       94.9822464       1.57079720    
   1.89704800       4.57987785      -8.00000000       94.9822464       1.57079720    
   1.89704800       4.57987785      -9.00000000       94.9822464       1.57079720    
   1.29409504       4.82962894      -8.00000000       94.9941711       1.57079709    
   1.29409504       4.82962894      -7.00000000       94.9941711       1.57079709    
   1.89704800       4.57987785      -7.00000000       94.9941711       1.57079709    
   1.89704800       4.57987785      -8.00000000       94.9941711       1.57079709    
   1.29409504       4.82962894      -7.00000000       95.0094986       1.57079720    
   1.29409504       4.82962894      -6.00000000       95.0094986       1.57079720    
   1.89704800       4.57987785      -6.00000000       95.0094986       1.57079720    
   1.89704800       4.57987785      -7.00000000       95.0094986       1.57079720    
   1.29409504       4.82962894      -6.00000000       94.9727478       1.57079792    
   1.29409504       4.82962894      -5.00000000       94.9727478       1.57079792    
   1.89704800       4.57987785      -5.00000000       94.9727478       1.57079792    
   1.89704800       4.57987785      -6.00000000       94.9727478       1.57079792    
   1.29409504       4.82962894      -5.00000000       94.9721069       1.57079780    
   1.29409504       4.82962894      -4.00000000       94.9721069       1.57079780    
   1.89704800       4.57987785      -4.00000000       94.9721069       1.57079780    
   1.89704800       4.57987785      -5.00000000       94.9721069       1.57079780    
   1.29409504       4.82962894      -4.00000000       95.0449600       1.57079792    
   1.29409504       4.82962894      -3.00000000       95.0449600       1.57079792    
   1.89704800       4.57987785      -3.00000000       95.0449600       1.57079792    