 VARIABLES="X" "Y" "Z" "abs(p) (Pa)" "angle(p) (rad)"
ZONE N=   1080,E =     600, F=FEPOINT, ET=QUADRILATERAL
   4.82962894       1.29409504      -10.0000000       542.234680      -1.10225236    
   4.82962894       1.29409504      -9.00000000       542.234680      -1.10225236    
   4.91481400      0.647047520      -9.00000000       542.234680      -1.10225236    
   4.91481400      0.647047520      -10.0000000       542.234680      -1.10225236    
   4.82962894       1.29409504      -9.00000000       704.559570      -1.10654962    
   4.82962894       1.29409504      -8.00000000       704.559570      -1.10654962    
   4.91481400      0.647047520      -8.00000000       704.559570      -1.10654962    
   4.91481400      0.647047520      -9.00000000       704.559570      -1.10654962    
   4.82962894       1.29409504      -8.00000000       813.956238      -1.07725537    
   4.82962894       1.29409504      -7.00000000       813.956238      -1.07725537    
   4.91481400      0.647047520      -7.00000000       813.956238      -1.07725537    
   4.91481400      0.647047520      -8.00000000       813.956238      -1.07725537    
   4.82962894       1.29409504      -7.00000000       908.792969      -1.03601050    
   4.82962894       1.29409504      -6.00000000       908.792969      -1.03601050    
   4.91481400      0.647047520      -6.00000000       908.792969      -1.03601050    
   4.91481400      0.647047520      -7.00000000       908.792969      -1.03601050    
   4.82962894       1.29409504      -6.00000000       1003.73651     -0.988993645    
   4.82962894       1.29409504      -5.00000000       1003.73651     -0.988993645    
   4.91481400      0.647047520      -5.00000000       1003.73651     -0.988993645    
   4.91481400      0.647047520      -6.00000000       1003.73651     -0.988993645    
   4.82962894       1.29409504      -5.00000000       1108.36951     -0.940043151    
   4.82962894       1.29409504      -4.00000000       1108.36951     -0.940043151    
   4.91481400      0.647047520      -4.00000000       1108.36951     -0.940043151    
   4.91481400      0.647047520      -5.00000000       1108.36951     -0.940043151    
   4.82962894       1.29409504      -4.00000000       1231.28577     -0.892702341    
   4.82962894       1.29409504      -3.00000000       1231.28577     -0.892702341    
   4.91481400      0.647047520      -3.00000000       1231.28577     -0.892702341    
   4.91481400      0.647047520      -4.00000000       1231.28577     -0.892702341    
   4.82962894       1.29409504      -3.00000000       1380.96521     -0.850446224    
   4.82962894       1.29409504      -2.00000000       1380.96521     -0.850446224    
   4.91481400      0.647047520      -2.00000000       1380.96521     -0.850446224    
   4.91481400      0.647047520      -3.00000000       1380.96521     -0.850446224    
   4.82962894       1.29409504      -2.00000000       1567.28113     -0.816822171    
   4.82962894       1.29409504      -1.00000000       1567.28113     -0.816822171    
   4.91481400      0.647047520      -1.00000000       1567.28113     -0.816822171    
   4.91481400      0.647047520      -2.00000000       1567.28113     -0.816822171    
   4.82962894       1.29409504      -1.00000000       1804.54578     -0.796246052    
   4.82962894       1.29409504       0.00000000       1804.54578     -0.796246052    
   4.91481400      0.647047520       0.00000000       1804.54578     -0.796246052    
   4.91481400      0.647047520      -1.00000000       1804.54578     -0.796246052    
   4.91481400      0.647047520      -10.0000000       215.127670      -1.15629530    
   4.91481400      0.647047520      -9.00000000       215.127670      -1.15629530    
   5.00000000       0.00000000      -9.00000000       215.127670      -1.15629530    
   5.00000000       0.00000000      -10.0000000       215.127670      -1.15629530    
   4.91481400      0.647047520      -9.00000000       274.254089      -1.14998472    
   4.91481400      0.647047520      -8.00000000       274.254089      -1.14998472    
   5.00000000       0.00000000      -8.00000000       274.254089      -1.14998472    
   5.00000000       0.00000000      -9.00000000       274.254089      -1.14998472    
   4.91481400      0.647047520      -8.00000000       312.874512      -1.11763418    
   4.91481400      0.647047520      -7.00000000       312.874512      -1.11763418    
   5.00000000       0.00000000      -7.00000000       312.874512      -1.11763418    
   5.00000000       0.00000000      -8.00000000       312.874512      -1.11763418    
   4.91481400      0.647047520      -7.00000000       346.127075      -1.07535374    
   4.91481400      0.647047520      -6.00000000       346.127075      -1.07535374    
   5.00000000       0.00000000      -6.00000000       346.127075      -1.07535374    
   5.00000000       0.00000000      -7.00000000       346.127075      -1.07535374    
   4.91481400      0.647047520      -6.00000000       379.234497      -1.02772617    
   4.91481400      0.647047520      -5.00000000       379.234497      -1.02772617    
   5.00000000       0.00000000      -5.00000000       379.234497      -1.02772617    
   5.00000000       0.00000000      -6.00000000       379.234497      -1.02772617    
   4.91481400      0.647047520      -5.00000000       415.735565     -0.978019476    
   4.91481400      0.647047520      -4.00000000       415.735565     -0.978019476    
   5.00000000       0.00000000      -4.00000000       415.735565     -0.978019476    
   5.00000000       0.00000000      -5.00000000       415.735565     -0.978019476    
   4.91481400      0.647047520      -4.00000000       458.703857     -0.929367900    
   4.91481400      0.647047520      -3.00000000       458.703857     -0.929367900    
   5.00000000       0.00000000      -3.00000000       458.703857     -0.929367900    
   5.00000000       0.00000000      -4.00000000       458.703857     -0.929367900    
   4.91481400      0.647047520      -3.00000000       511.182037     -0.885087132    
   4.91481400      0.647047520      -2.00000000       511.182037     -0.885087132    
   5.00000000       0.00000000      -2.00000000       511.182037     -0.885087132    
   5.00000000       0.00000000      -3.00000000       511.182037     -0.885087132    
   4.91481400      0.647047520      -2.00000000       576.818115     -0.848757207    
   4.91481400      0.647047520      -1.00000000       576.818115     -0.848757207    
   5.00000000       0.00000000      -1.00000000       576.818115     -0.848757207    
   5.00000000       0.00000000      -2.00000000       576.818115     -0.848757207    
   4.91481400      0.647047520      -1.00000000       660.383545     -0.824728847    
   4.91481400      0.647047520       0.00000000       660.383545     -0.824728847    
   5.00000000       0.00000000       0.00000000       660.383545     -0.824728847    
   5.00000000       0.00000000      -1.00000000       660.383545     -0.824728847    
   4.33012676       2.50000000      -10.0000000       1262.38501      -1.11145771    
   4.33012676       2.50000000      -9.00000000       1262.38501      -1.11145771    
   4.57987785       1.89704800      -9.00000000       1262.38501      -1.11145771    
   4.57987785       1.89704800      -10.0000000       1262.38501      -1.11145771    
   4.33012676       2.50000000      -9.00000000       1635.14368      -1.11383319    
   4.33012676       2.50000000      -8.00000000       1635.14368      -1.11383319    
   4.57987785       1.89704800      -8.00000000       1635.14368      -1.11383319    
   4.57987785       1.89704800      -9.00000000       1635.14368      -1.11383319    
   4.33012676       2.50000000      -8.00000000       1885.10474      -1.08395457    
   4.33012676       2.50000000      -7.00000000       1885.10474      -1.08395457    
   4.57987785       1.89704800      -7.00000000       1885.10474      -1.08395457    
   4.57987785       1.89704800      -8.00000000       1885.10474      -1.08395457    
   4.33012676       2.50000000      -7.00000000       2101.55469      -1.04248953    
   4.33012676       2.50000000      -6.00000000       2101.55469      -1.04248953    
   4.57987785       1.89704800      -6.00000000       2101.55469      -1.04248953    
   4.57987785       1.89704800      -7.00000000       2101.55469      -1.04248953    
   4.33012676       2.50000000      -6.00000000       2318.06836     -0.995326579    
   4.33012676       2.50000000      -5.00000000       2318.06836     -0.995326579    
   4.57987785       1.89704800      -5.00000000       2318.06836     -0.995326579    
   4.57987785       1.89704800      -6.00000000       2318.06836     -0.995326579    
   4.33012676       2.50000000      -5.00000000       2556.69019     -0.946216285    
   4.33012676       2.50000000      -4.00000000       2556.69019     -0.946216285    
   4.57987785       1.89704800      -4.00000000       2556.69019     -0.946216285    
   4.57987785       1.89704800      -5.00000000       2556.69019     -0.946216285    
   4.33012676       2.50000000      -4.00000000       2837.10986     -0.898629069    
   4.33012676       2.50000000      -3.00000000       2837.10986     -0.898629069    
   4.57987785       1.89704800      -3.00000000       2837.10986     -0.898629069    
   4.57987785       1.89704800      -4.00000000       2837.10986     -0.898629069    
   4.33012676       2.50000000      -3.00000000       3178.74634     -0.856015265    
   4.33012676       2.50000000      -2.00000000       3178.74634     -0.856015265    
   4.57987785       1.89704800      -2.00000000       3178.74634     -0.856015265    
   4.57987785       1.89704800      -3.00000000       3178.74634     -0.856015265    
   4.33012676       2.50000000      -2.00000000       3604.32373     -0.821933985    
   4.33012676       2.50000000      -1.00000000       3604.32373     -0.821933985    
   4.57987785       1.89704800      -1.00000000       3604.32373     -0.821933985    
   4.57987785       1.89704800      -2.00000000       3604.32373     -0.821933985    
   4.33012676       2.50000000      -1.00000000       4146.26807     -0.800783336    
   4.33012676       2.50000000       0.00000000       4146.26807     -0.800783336    
   4.57987785       1.89704800       0.00000000       4146.26807     -0.800783336    
   4.57987785       1.89704800      -1.00000000       4146.26807     -0.800783336    
   4.57987785       1.89704800      -10.0000000       957.486389      -1.12569916    
   4.57987785       1.89704800      -9.00000000       957.486389      -1.12569916    
   4.82962894       1.29409504      -9.00000000       957.486389      -1.12569916    
   4.82962894       1.29409504      -10.0000000       957.486389      -1.12569916    
   4.57987785       1.89704800      -9.00000000       1234.09229      -1.12519372    
   4.57987785       1.89704800      -8.00000000       1234.09229      -1.12519372    
   4.82962894       1.29409504      -8.00000000       1234.09229      -1.12519372    
   4.82962894       1.29409504      -9.00000000       1234.09229      -1.12519372    
   4.57987785       1.89704800      -8.00000000       1418.09900      -1.09446251    
   4.57987785       1.89704800      -7.00000000       1418.09900      -1.09446251    
   4.82962894       1.29409504      -7.00000000       1418.09900      -1.09446251    
   4.82962894       1.29409504      -8.00000000       1418.09900      -1.09446251    
   4.57987785       1.89704800      -7.00000000       1577.16040      -1.05268693    
   4.57987785       1.89704800      -6.00000000       1577.16040      -1.05268693    
   4.82962894       1.29409504      -6.00000000       1577.16040      -1.05268693    
   4.82962894       1.29409504      -7.00000000       1577.16040      -1.05268693    
   4.57987785       1.89704800      -6.00000000       1736.04370      -1.00533521    
   4.57987785       1.89704800      -5.00000000       1736.04370      -1.00533521    
   4.82962894       1.29409504      -5.00000000       1736.04370      -1.00533521    
   4.82962894       1.29409504      -6.00000000       1736.04370      -1.00533521    
   4.57987785       1.89704800      -5.00000000       1911.16870     -0.956000209    
   4.57987785       1.89704800      -4.00000000       1911.16870     -0.956000209    
   4.82962894       1.29409504      -4.00000000       1911.16870     -0.956000209    
   4.82962894       1.29409504      -5.00000000       1911.16870     -0.956000209    
   4.57987785       1.89704800      -4.00000000       2117.09131     -0.908045352    
   4.57987785       1.89704800      -3.00000000       2117.09131     -0.908045352    
   4.82962894       1.29409504      -3.00000000       2117.09131     -0.908045352    
   4.82962894       1.29409504      -4.00000000       2117.09131     -0.908045352    
   4.57987785       1.89704800      -3.00000000       2368.14917     -0.864888668    
   4.57987785       1.89704800      -2.00000000       2368.14917     -0.864888668    
   4.82962894       1.29409504      -2.00000000       2368.14917     -0.864888668    
   4.82962894       1.29409504      -3.00000000       2368.14917     -0.864888668    
   4.57987785       1.89704800      -2.00000000       2681.27344     -0.830094099    
   4.57987785       1.89704800      -1.00000000       2681.27344     -0.830094099    
   4.82962894       1.29409504      -1.00000000       2681.27344     -0.830094099    
   4.82962894       1.29409504      -2.00000000       2681.27344     -0.830094099    
   4.57987785       1.89704800      -1.00000000       3080.00073     -0.808044255    
   4.57987785       1.89704800       0.00000000       3080.00073     -0.808044255    
   4.82962894       1.29409504       0.00000000       3080.00073     -0.808044255    
   4.82962894       1.29409504      -1.00000000       3080.00073     -0.808044255    
   3.53553391       3.53553391      -10.0000000       1896.53503      -1.11408925    
   3.53553391       3.53553391      -9.00000000       1896.53503      -1.11408925    
   3.93283010       3.01776695      -9.00000000       1896.53503      -1.11408925    
   3.93283010       3.01776695      -10.0000000       1896.53503      -1.11408925    
   3.53553391       3.53553391      -9.00000000       2454.31958      -1.11592400    
   3.53553391       3.53553391      -8.00000000       2454.31958      -1.11592400    
   3.93283010       3.01776695      -8.00000000       2454.31958      -1.11592400    
   3.93283010       3.01776695      -9.00000000       2454.31958      -1.11592400    
   3.53553391       3.53553391      -8.00000000       2827.81030      -1.08588290    
   3.53553391       3.53553391      -7.00000000       2827.81030      -1.08588290    
   3.93283010       3.01776695      -7.00000000       2827.81030      -1.08588290    
   3.93283010       3.01776695      -8.00000000       2827.81030      -1.08588290    
   3.53553391       3.53553391      -7.00000000       3151.12573      -1.04435813    
   3.53553391       3.53553391      -6.00000000       3151.12573      -1.04435813    
   3.93283010       3.01776695      -6.00000000       3151.12573      -1.04435813    
   3.93283010       3.01776695      -7.00000000       3151.12573      -1.04435813    
   3.53553391       3.53553391      -6.00000000       3474.45215     -0.997157991    
   3.53553391       3.53553391      -5.00000000       3474.45215     -0.997157991    
   3.93283010       3.01776695      -5.00000000       3474.45215     -0.997157991    
   3.93283010       3.01776695      -6.00000000       3474.45215     -0.997157991    
   3.53553391       3.53553391      -5.00000000       3830.80249     -0.948003590    
   3.53553391       3.53553391      -4.00000000       3830.80249     -0.948003590    
   3.93283010       3.01776695      -4.00000000       3830.80249     -0.948003590    
   3.93283010       3.01776695      -5.00000000       3830.80249     -0.948003590    
   3.53553391       3.53553391      -4.00000000       4249.61865     -0.900344968    
   3.53553391       3.53553391      -3.00000000       4249.61865     -0.900344968    
   3.93283010       3.01776695      -3.00000000       4249.61865     -0.900344968    
   3.93283010       3.01776695      -4.00000000       4249.61865     -0.900344968    
   3.53553391       3.53553391      -3.00000000       4759.92627     -0.857631922    
   3.53553391       3.53553391      -2.00000000       4759.92627     -0.857631922    
   3.93283010       3.01776695      -2.00000000       4759.92627     -0.857631922    
   3.93283010       3.01776695      -3.00000000       4759.92627     -0.857631922    
   3.53553391       3.53553391      -2.00000000       5395.76465     -0.823418438    
   3.53553391       3.53553391      -1.00000000       5395.76465     -0.823418438    
   3.93283010       3.01776695      -1.00000000       5395.76465     -0.823418438    
   3.93283010       3.01776695      -2.00000000       5395.76465     -0.823418438    
   3.53553391       3.53553391      -1.00000000       6205.45605     -0.802102149    
   3.53553391       3.53553391       0.00000000       6205.45605     -0.802102149    
   3.93283010       3.01776695       0.00000000       6205.45605     -0.802102149    
   3.93283010       3.01776695      -1.00000000       6205.45605     -0.802102149    
   3.93283010       3.01776695      -10.0000000       1634.70801      -1.12167454    
   3.93283010       3.01776695      -9.00000000       1634.70801      -1.12167454    
   4.33012676       2.50000000      -9.00000000       1634.70801      -1.12167454    
   4.33012676       2.50000000      -10.0000000       1634.70801      -1.12167454    
   3.93283010       3.01776695      -9.00000000       2109.92554      -1.12197018    
   3.93283010       3.01776695      -8.00000000       2109.92554      -1.12197018    
   4.33012676       2.50000000      -8.00000000       2109.92554      -1.12197018    
   4.33012676       2.50000000      -9.00000000       2109.92554      -1.12197018    
   3.93283010       3.01776695      -8.00000000       2426.78076      -1.09147406    
   3.93283010       3.01776695      -7.00000000       2426.78076      -1.09147406    
   4.33012676       2.50000000      -7.00000000       2426.78076      -1.09147406    
   4.33012676       2.50000000      -8.00000000       2426.78076      -1.09147406    
   3.93283010       3.01776695      -7.00000000       2700.81567      -1.04978287    
   3.93283010       3.01776695      -6.00000000       2700.81567      -1.04978287    
   4.33012676       2.50000000      -6.00000000       2700.81567      -1.04978287    
   4.33012676       2.50000000      -7.00000000       2700.81567      -1.04978287    
   3.93283010       3.01776695      -6.00000000       2974.65430      -1.00247955    
   3.93283010       3.01776695      -5.00000000       2974.65430      -1.00247955    
   4.33012676       2.50000000      -5.00000000       2974.65430      -1.00247955    
   4.33012676       2.50000000      -6.00000000       2974.65430      -1.00247955    
   3.93283010       3.01776695      -5.00000000       3276.47656     -0.953205943    
   3.93283010       3.01776695      -4.00000000       3276.47656     -0.953205943    
   4.33012676       2.50000000      -4.00000000       3276.47656     -0.953205943    
   4.33012676       2.50000000      -5.00000000       3276.47656     -0.953205943    
   3.93283010       3.01776695      -4.00000000       3631.32153     -0.905351996    
   3.93283010       3.01776695      -3.00000000       3631.32153     -0.905351996    
   4.33012676       2.50000000      -3.00000000       3631.32153     -0.905351996    
   4.33012676       2.50000000      -4.00000000       3631.32153     -0.905351996    
   3.93283010       3.01776695      -3.00000000       4063.84717     -0.862349391    
   3.93283010       3.01776695      -2.00000000       4063.84717     -0.862349391    
   4.33012676       2.50000000      -2.00000000       4063.84717     -0.862349391    
   4.33012676       2.50000000      -3.00000000       4063.84717     -0.862349391    
   3.93283010       3.01776695      -2.00000000       4603.11963     -0.827756166    
   3.93283010       3.01776695      -1.00000000       4603.11963     -0.827756166    
   4.33012676       2.50000000      -1.00000000       4603.11963     -0.827756166    
   4.33012676       2.50000000      -2.00000000       4603.11963     -0.827756166    
   3.93283010       3.01776695      -1.00000000       5289.83008     -0.805960178    
   3.93283010       3.01776695       0.00000000       5289.83008     -0.805960178    
   4.33012676       2.50000000       0.00000000       5289.83008     -0.805960178    
   4.33012676       2.50000000      -1.00000000       5289.83008     -0.805960178    
   2.50000000       4.33012676      -10.0000000       2401.44385      -1.11547339    
   2.50000000       4.33012676      -9.00000000       2401.44385      -1.11547339    
   3.01776695       3.93283010      -9.00000000       2401.44385      -1.11547339    
   3.01776695       3.93283010      -10.0000000       2401.44385      -1.11547339    
   2.50000000       4.33012676      -9.00000000       3106.24414      -1.11702442    
   2.50000000       4.33012676      -8.00000000       3106.24414      -1.11702442    
   3.01776695       3.93283010      -8.00000000       3106.24414      -1.11702442    
   3.01776695       3.93283010      -9.00000000       3106.24414      -1.11702442    
   2.50000000       4.33012676      -8.00000000       3577.81177      -1.08689976    
   2.50000000       4.33012676      -7.00000000       3577.81177      -1.08689976    
   3.01776695       3.93283010      -7.00000000       3577.81177      -1.08689976    
   3.01776695       3.93283010      -8.00000000       3577.81177      -1.08689976    
   2.50000000       4.33012676      -7.00000000       3985.95947      -1.04534256    
   2.50000000       4.33012676      -6.00000000       3985.95947      -1.04534256    
   3.01776695       3.93283010      -6.00000000       3985.95947      -1.04534256    
   3.01776695       3.93283010      -7.00000000       3985.95947      -1.04534256    
   2.50000000       4.33012676      -6.00000000       4394.06641     -0.998122215    
   2.50000000       4.33012676      -5.00000000       4394.06641     -0.998122215    
   3.01776695       3.93283010      -5.00000000       4394.06641     -0.998122215    
   3.01776695       3.93283010      -6.00000000       4394.06641     -0.998122215    
   2.50000000       4.33012676      -5.00000000       4843.85889     -0.948945880    
   2.50000000       4.33012676      -4.00000000       4843.85889     -0.948945880    
   3.01776695       3.93283010      -4.00000000       4843.85889     -0.948945880    
   3.01776695       3.93283010      -5.00000000       4843.85889     -0.948945880    
   2.50000000       4.33012676      -4.00000000       5372.52832     -0.901252091    
   2.50000000       4.33012676      -3.00000000       5372.52832     -0.901252091    
   3.01776695       3.93283010      -3.00000000       5372.52832     -0.901252091    
   3.01776695       3.93283010      -4.00000000       5372.52832     -0.901252091    
   2.50000000       4.33012676      -3.00000000       6016.73584     -0.858484328    
   2.50000000       4.33012676      -2.00000000       6016.73584     -0.858484328    
   3.01776695       3.93283010      -2.00000000       6016.73584     -0.858484328    
   3.01776695       3.93283010      -3.00000000       6016.73584     -0.858484328    
   2.50000000       4.33012676      -2.00000000       6819.49512     -0.824203253    
   2.50000000       4.33012676      -1.00000000       6819.49512     -0.824203253    
   3.01776695       3.93283010      -1.00000000       6819.49512     -0.824203253    
   3.01776695       3.93283010      -2.00000000       6819.49512     -0.824203253    
   2.50000000       4.33012676      -1.00000000       7841.76025     -0.802799344    
   2.50000000       4.33012676       0.00000000       7841.76025     -0.802799344    
   3.01776695       3.93283010       0.00000000       7841.76025     -0.802799344    
   3.01776695       3.93283010      -1.00000000       7841.76025     -0.802799344    
   3.01776695       3.93283010      -10.0000000       2200.53857      -1.11992300    
   3.01776695       3.93283010      -9.00000000       2200.53857      -1.11992300    
   3.53553391       3.53553391      -9.00000000       2200.53857      -1.11992300    
   3.53553391       3.53553391      -10.0000000       2200.53857      -1.11992300    
   3.01776695       3.93283010      -9.00000000       2841.97852      -1.12057161    
   3.01776695       3.93283010      -8.00000000       2841.97852      -1.12057161    
   3.53553391       3.53553391      -8.00000000       2841.97852      -1.12057161    
   3.53553391       3.53553391      -9.00000000       2841.97852      -1.12057161    
   3.01776695       3.93283010      -8.00000000       3270.08984      -1.09017885    
   3.01776695       3.93283010      -7.00000000       3270.08984      -1.09017885    
   3.53553391       3.53553391      -7.00000000       3270.08984      -1.09017885    
   3.53553391       3.53553391      -8.00000000       3270.08984      -1.09017885    
   3.01776695       3.93283010      -7.00000000       3640.42065      -1.04852438    
   3.01776695       3.93283010      -6.00000000       3640.42065      -1.04852438    
   3.53553391       3.53553391      -6.00000000       3640.42065      -1.04852438    
   3.53553391       3.53553391      -7.00000000       3640.42065      -1.04852438    
   3.01776695       3.93283010      -6.00000000       4010.55591      -1.00124383    
   3.01776695       3.93283010      -5.00000000       4010.55591      -1.00124383    
   3.53553391       3.53553391      -5.00000000       4010.55591      -1.00124383    
   3.53553391       3.53553391      -6.00000000       4010.55591      -1.00124383    
   3.01776695       3.93283010      -5.00000000       4418.51074     -0.951996982    
   3.01776695       3.93283010      -4.00000000       4418.51074     -0.951996982    
   3.53553391       3.53553391      -4.00000000       4418.51074     -0.951996982    
   3.53553391       3.53553391      -5.00000000       4418.51074     -0.951996982    
   3.01776695       3.93283010      -4.00000000       4898.08984     -0.904187620    
   3.01776695       3.93283010      -3.00000000       4898.08984     -0.904187620    
   3.53553391       3.53553391      -3.00000000       4898.08984     -0.904187620    
   3.53553391       3.53553391      -4.00000000       4898.08984     -0.904187620    
   3.01776695       3.93283010      -3.00000000       5482.61426     -0.861251175    
   3.01776695       3.93283010      -2.00000000       5482.61426     -0.861251175    
   3.53553391       3.53553391      -2.00000000       5482.61426     -0.861251175    
   3.53553391       3.53553391      -3.00000000       5482.61426     -0.861251175    
   3.01776695       3.93283010      -2.00000000       6211.27783     -0.826746881    
   3.01776695       3.93283010      -1.00000000       6211.27783     -0.826746881    
   3.53553391       3.53553391      -1.00000000       6211.27783     -0.826746881    
   3.53553391       3.53553391      -2.00000000       6211.27783     -0.826746881    
   3.01776695       3.93283010      -1.00000000       7139.17139     -0.805062413    
   3.01776695       3.93283010       0.00000000       7139.17139     -0.805062413    
   3.53553391       3.53553391       0.00000000       7139.17139     -0.805062413    
   3.53553391       3.53553391      -1.00000000       7139.17139     -0.805062413    
   1.29409504       4.82962894      -10.0000000       2742.70557      -1.11643064    
   1.29409504       4.82962894      -9.00000000       2742.70557      -1.11643064    
   1.89704800       4.57987785      -9.00000000       2742.70557      -1.11643064    
   1.89704800       4.57987785      -10.0000000       2742.70557      -1.11643064    
   1.29409504       4.82962894      -9.00000000       3546.48486      -1.11778605    
   1.29409504       4.82962894      -8.00000000       3546.48486      -1.11778605    
   1.89704800       4.57987785      -8.00000000       3546.48486      -1.11778605    
   1.89704800       4.57987785      -9.00000000       3546.48486      -1.11778605    
   1.29409504       4.82962894      -8.00000000       4083.99097      -1.08760333    
   1.29409504       4.82962894      -7.00000000       4083.99097      -1.08760333    
   1.89704800       4.57987785      -7.00000000       4083.99097      -1.08760333    
   1.89704800       4.57987785      -8.00000000       4083.99097      -1.08760333    
   1.29409504       4.82962894      -7.00000000       4549.15674      -1.04602456    
   1.29409504       4.82962894      -6.00000000       4549.15674      -1.04602456    
   1.89704800       4.57987785      -6.00000000       4549.15674      -1.04602456    
   1.89704800       4.57987785      -7.00000000       4549.15674      -1.04602456    
   1.29409504       4.82962894      -6.00000000       5014.23291     -0.998791397    
   1.29409504       4.82962894      -5.00000000       5014.23291     -0.998791397    
   1.89704800       4.57987785      -5.00000000       5014.23291     -0.998791397    
   1.89704800       4.57987785      -6.00000000       5014.23291     -0.998791397    
   1.29409504       4.82962894      -5.00000000       5526.81592     -0.949599683    
   1.29409504       4.82962894      -4.00000000       5526.81592     -0.949599683    
   1.89704800       4.57987785      -4.00000000       5526.81592     -0.949599683    
   1.89704800       4.57987785      -5.00000000       5526.81592     -0.949599683    
   1.29409504       4.82962894      -4.00000000       6129.31055     -0.901880741    
   1.29409504       4.82962894      -3.00000000       6129.31055     -0.901880741    
   1.89704800       4.57987785      -3.00000000       6129.31055     -0.901880741    