 VARIABLES="X" "Y" "Z" "abs(p) (Pa)" "angle(p) (rad)"
ZONE N=   1080,E =     600, F=FEPOINT, ET=QUADRILATERAL
   4.82962894       1.29409504      -10.0000000       101.987167       1.57079577    
   4.82962894       1.29409504      -9.00000000       101.987167       1.57079577    
   4.91481400      0.647047520      -9.00000000       101.987167       1.57079577    
   4.91481400      0.647047520      -10.0000000       101.987167       1.57079577    
   4.82962894       1.29409504      -9.00000000       104.298172       1.57079566    
   4.82962894       1.29409504      -8.00000000       104.298172       1.57079566    
   4.91481400      0.647047520      -8.00000000       104.298172       1.57079566    
   4.91481400      0.647047520      -9.00000000       104.298172       1.57079566    
   4.82962894       1.29409504      -8.00000000       104.311104       1.57079542    
   4.82962894       1.29409504      -7.00000000       104.311104       1.57079542    
   4.91481400      0.647047520      -7.00000000       104.311104       1.57079542    
   4.91481400      0.647047520      -8.00000000       104.311104       1.57079542    
   4.82962894       1.29409504      -7.00000000       104.328140       1.57079554    
   4.82962894       1.29409504      -6.00000000       104.328140       1.57079554    
   4.91481400      0.647047520      -6.00000000       104.328140       1.57079554    
   4.91481400      0.647047520      -7.00000000       104.328140       1.57079554    
   4.82962894       1.29409504      -6.00000000       104.288239       1.57079554    
   4.82962894       1.29409504      -5.00000000       104.288239       1.57079554    
   4.91481400      0.647047520      -5.00000000       104.288239       1.57079554    
   4.91481400      0.647047520      -6.00000000       104.288239       1.57079554    
   4.82962894       1.29409504      -5.00000000       104.287575       1.57079434    
   4.82962894       1.29409504      -4.00000000       104.287575       1.57079434    
   4.91481400      0.647047520      -4.00000000       104.287575       1.57079434    
   4.91481400      0.647047520      -5.00000000       104.287575       1.57079434    
   4.82962894       1.29409504      -4.00000000       104.368286       1.57079422    
   4.82962894       1.29409504      -3.00000000       104.368286       1.57079422    
   4.91481400      0.647047520      -3.00000000       104.368286       1.57079422    
   4.91481400      0.647047520      -4.00000000       104.368286       1.57079422    
   4.82962894       1.29409504      -3.00000000       104.340302       1.57079387    
   4.82962894       1.29409504      -2.00000000       104.340302       1.57079387    
   4.91481400      0.647047520      -2.00000000       104.340302       1.57079387    
   4.91481400      0.647047520      -3.00000000       104.340302       1.57079387    
   4.82962894       1.29409504      -2.00000000       104.368286       1.57079411    
   4.82962894       1.29409504      -1.00000000       104.368286       1.57079411    
   4.91481400      0.647047520      -1.00000000       104.368286       1.57079411    
   4.91481400      0.647047520      -2.00000000       104.368286       1.57079411    
   4.82962894       1.29409504      -1.00000000       103.954979       1.57079375    
   4.82962894       1.29409504       0.00000000       103.954979       1.57079375    
   4.91481400      0.647047520       0.00000000       103.954979       1.57079375    
   4.91481400      0.647047520      -1.00000000       103.954979       1.57079375    
   4.91481400      0.647047520      -10.0000000       101.989044      -1.57079697    
   4.91481400      0.647047520      -9.00000000       101.989044      -1.57079697    
   5.00000000       0.00000000      -9.00000000       101.989044      -1.57079697    
   5.00000000       0.00000000      -10.0000000       101.989044      -1.57079697    
   4.91481400      0.647047520      -9.00000000       104.300636      -1.57079697    
   4.91481400      0.647047520      -8.00000000       104.300636      -1.57079697    
   5.00000000       0.00000000      -8.00000000       104.300636      -1.57079697    
   5.00000000       0.00000000      -9.00000000       104.300636      -1.57079697    
   4.91481400      0.647047520      -8.00000000       104.313492      -1.57079720    
   4.91481400      0.647047520      -7.00000000       104.313492      -1.57079720    
   5.00000000       0.00000000      -7.00000000       104.313492      -1.57079720    
   5.00000000       0.00000000      -8.00000000       104.313492      -1.57079720    
   4.91481400      0.647047520      -7.00000000       104.330582      -1.57079720    
   4.91481400      0.647047520      -6.00000000       104.330582      -1.57079720    
   5.00000000       0.00000000      -6.00000000       104.330582      -1.57079720    
   5.00000000       0.00000000      -7.00000000       104.330582      -1.57079720    
   4.91481400      0.647047520      -6.00000000       104.290321      -1.57079744    
   4.91481400      0.647047520      -5.00000000       104.290321      -1.57079744    
   5.00000000       0.00000000      -5.00000000       104.290321      -1.57079744    
   5.00000000       0.00000000      -6.00000000       104.290321      -1.57079744    
   4.91481400      0.647047520      -5.00000000       104.289757      -1.57079768    
   4.91481400      0.647047520      -4.00000000       104.289757      -1.57079768    
   5.00000000       0.00000000      -4.00000000       104.289757      -1.57079768    
   5.00000000       0.00000000      -5.00000000       104.289757      -1.57079768    
   4.91481400      0.647047520      -4.00000000       104.370567      -1.57079828    
   4.91481400      0.647047520      -3.00000000       104.370567      -1.57079828    
   5.00000000       0.00000000      -3.00000000       104.370567      -1.57079828    
   5.00000000       0.00000000      -4.00000000       104.370567      -1.57079828    
   4.91481400      0.647047520      -3.00000000       104.342705      -1.57079828    
   4.91481400      0.647047520      -2.00000000       104.342705      -1.57079828    
   5.00000000       0.00000000      -2.00000000       104.342705      -1.57079828    
   5.00000000       0.00000000      -3.00000000       104.342705      -1.57079828    
   4.91481400      0.647047520      -2.00000000       104.370644      -1.57079864    
   4.91481400      0.647047520      -1.00000000       104.370644      -1.57079864    
   5.00000000       0.00000000      -1.00000000       104.370644      -1.57079864    
   5.00000000       0.00000000      -2.00000000       104.370644      -1.57079864    
   4.91481400      0.647047520      -1.00000000       103.957214      -1.57079792    
   4.91481400      0.647047520       0.00000000       103.957214      -1.57079792    
   5.00000000       0.00000000       0.00000000       103.957214      -1.57079792    
   5.00000000       0.00000000      -1.00000000       103.957214      -1.57079792    
   4.33012676       2.50000000      -10.0000000       101.988327       1.57079566    
   4.33012676       2.50000000      -9.00000000       101.988327       1.57079566    
   4.57987785       1.89704800      -9.00000000       101.988327       1.57079566    
   4.57987785       1.89704800      -10.0000000       101.988327       1.57079566    
   4.33012676       2.50000000      -9.00000000       104.299637       1.57079542    
   4.33012676       2.50000000      -8.00000000       104.299637       1.57079542    
   4.57987785       1.89704800      -8.00000000       104.299637       1.57079542    
   4.57987785       1.89704800      -9.00000000       104.299637       1.57079542    
   4.33012676       2.50000000      -8.00000000       104.312386       1.57079542    
   4.33012676       2.50000000      -7.00000000       104.312386       1.57079542    
   4.57987785       1.89704800      -7.00000000       104.312386       1.57079542    
   4.57987785       1.89704800      -8.00000000       104.312386       1.57079542    
   4.33012676       2.50000000      -7.00000000       104.329727       1.57079542    
   4.33012676       2.50000000      -6.00000000       104.329727       1.57079542    
   4.57987785       1.89704800      -6.00000000       104.329727       1.57079542    
   4.57987785       1.89704800      -7.00000000       104.329727       1.57079542    
   4.33012676       2.50000000      -6.00000000       104.289604       1.57079506    
   4.33012676       2.50000000      -5.00000000       104.289604       1.57079506    
   4.57987785       1.89704800      -5.00000000       104.289604       1.57079506    
   4.57987785       1.89704800      -6.00000000       104.289604       1.57079506    
   4.33012676       2.50000000      -5.00000000       104.288986       1.57079422    
   4.33012676       2.50000000      -4.00000000       104.288986       1.57079422    
   4.57987785       1.89704800      -4.00000000       104.288986       1.57079422    
   4.57987785       1.89704800      -5.00000000       104.288986       1.57079422    
   4.33012676       2.50000000      -4.00000000       104.369682       1.57079434    
   4.33012676       2.50000000      -3.00000000       104.369682       1.57079434    
   4.57987785       1.89704800      -3.00000000       104.369682       1.57079434    
   4.57987785       1.89704800      -4.00000000       104.369682       1.57079434    
   4.33012676       2.50000000      -3.00000000       104.341850       1.57079375    
   4.33012676       2.50000000      -2.00000000       104.341850       1.57079375    
   4.57987785       1.89704800      -2.00000000       104.341850       1.57079375    
   4.57987785       1.89704800      -3.00000000       104.341850       1.57079375    
   4.33012676       2.50000000      -2.00000000       104.369499       1.57079363    
   4.33012676       2.50000000      -1.00000000       104.369499       1.57079363    
   4.57987785       1.89704800      -1.00000000       104.369499       1.57079363    
   4.57987785       1.89704800      -2.00000000       104.369499       1.57079363    
   4.33012676       2.50000000      -1.00000000       103.955940       1.57079315    
   4.33012676       2.50000000       0.00000000       103.955940       1.57079315    
   4.57987785       1.89704800       0.00000000       103.955940       1.57079315    
   4.57987785       1.89704800      -1.00000000       103.955940       1.57079315    
   4.57987785       1.89704800      -10.0000000       101.988556      -1.57079685    
   4.57987785       1.89704800      -9.00000000       101.988556      -1.57079685    
   4.82962894       1.29409504      -9.00000000       101.988556      -1.57079685    
   4.82962894       1.29409504      -10.0000000       101.988556      -1.57079685    
   4.57987785       1.89704800      -9.00000000       104.300316      -1.57079697    
   4.57987785       1.89704800      -8.00000000       104.300316      -1.57079697    
   4.82962894       1.29409504      -8.00000000       104.300316      -1.57079697    
   4.82962894       1.29409504      -9.00000000       104.300316      -1.57079697    
   4.57987785       1.89704800      -8.00000000       104.313148      -1.57079697    
   4.57987785       1.89704800      -7.00000000       104.313148      -1.57079697    
   4.82962894       1.29409504      -7.00000000       104.313148      -1.57079697    
   4.82962894       1.29409504      -8.00000000       104.313148      -1.57079697    
   4.57987785       1.89704800      -7.00000000       104.330193      -1.57079697    
   4.57987785       1.89704800      -6.00000000       104.330193      -1.57079697    
   4.82962894       1.29409504      -6.00000000       104.330193      -1.57079697    
   4.82962894       1.29409504      -7.00000000       104.330193      -1.57079697    
   4.57987785       1.89704800      -6.00000000       104.290344      -1.57079720    
   4.57987785       1.89704800      -5.00000000       104.290344      -1.57079720    
   4.82962894       1.29409504      -5.00000000       104.290344      -1.57079720    
   4.82962894       1.29409504      -6.00000000       104.290344      -1.57079720    
   4.57987785       1.89704800      -5.00000000       104.289566      -1.57079768    
   4.57987785       1.89704800      -4.00000000       104.289566      -1.57079768    
   4.82962894       1.29409504      -4.00000000       104.289566      -1.57079768    
   4.82962894       1.29409504      -5.00000000       104.289566      -1.57079768    
   4.57987785       1.89704800      -4.00000000       104.370430      -1.57079780    
   4.57987785       1.89704800      -3.00000000       104.370430      -1.57079780    
   4.82962894       1.29409504      -3.00000000       104.370430      -1.57079780    
   4.82962894       1.29409504      -4.00000000       104.370430      -1.57079780    
   4.57987785       1.89704800      -3.00000000       104.342789      -1.57079792    
   4.57987785       1.89704800      -2.00000000       104.342789      -1.57079792    
   4.82962894       1.29409504      -2.00000000       104.342789      -1.57079792    
   4.82962894       1.29409504      -3.00000000       104.342789      -1.57079792    
   4.57987785       1.89704800      -2.00000000       104.371071      -1.57079768    
   4.57987785       1.89704800      -1.00000000       104.371071      -1.57079768    
   4.82962894       1.29409504      -1.00000000       104.371071      -1.57079768    
   4.82962894       1.29409504      -2.00000000       104.371071      -1.57079768    
   4.57987785       1.89704800      -1.00000000       103.957542      -1.57079709    
   4.57987785       1.89704800       0.00000000       103.957542      -1.57079709    
   4.82962894       1.29409504       0.00000000       103.957542      -1.57079709    
   4.82962894       1.29409504      -1.00000000       103.957542      -1.57079709    
   3.53553391       3.53553391      -10.0000000       101.988663       1.57079554    
   3.53553391       3.53553391      -9.00000000       101.988663       1.57079554    
   3.93283010       3.01776695      -9.00000000       101.988663       1.57079554    
   3.93283010       3.01776695      -10.0000000       101.988663       1.57079554    
   3.53553391       3.53553391      -9.00000000       104.300171       1.57079530    
   3.53553391       3.53553391      -8.00000000       104.300171       1.57079530    
   3.93283010       3.01776695      -8.00000000       104.300171       1.57079530    
   3.93283010       3.01776695      -9.00000000       104.300171       1.57079530    
   3.53553391       3.53553391      -8.00000000       104.313065       1.57079506    
   3.53553391       3.53553391      -7.00000000       104.313065       1.57079506    
   3.93283010       3.01776695      -7.00000000       104.313065       1.57079506    
   3.93283010       3.01776695      -8.00000000       104.313065       1.57079506    
   3.53553391       3.53553391      -7.00000000       104.329895       1.57079482    
   3.53553391       3.53553391      -6.00000000       104.329895       1.57079482    
   3.93283010       3.01776695      -6.00000000       104.329895       1.57079482    
   3.93283010       3.01776695      -7.00000000       104.329895       1.57079482    
   3.53553391       3.53553391      -6.00000000       104.290024       1.57079434    
   3.53553391       3.53553391      -5.00000000       104.290024       1.57079434    
   3.93283010       3.01776695      -5.00000000       104.290024       1.57079434    
   3.93283010       3.01776695      -6.00000000       104.290024       1.57079434    
   3.53553391       3.53553391      -5.00000000       104.289375       1.57079399    
   3.53553391       3.53553391      -4.00000000       104.289375       1.57079399    
   3.93283010       3.01776695      -4.00000000       104.289375       1.57079399    
   3.93283010       3.01776695      -5.00000000       104.289375       1.57079399    
   3.53553391       3.53553391      -4.00000000       104.369835       1.57079363    
   3.53553391       3.53553391      -3.00000000       104.369835       1.57079363    
   3.93283010       3.01776695      -3.00000000       104.369835       1.57079363    
   3.93283010       3.01776695      -4.00000000       104.369835       1.57079363    
   3.53553391       3.53553391      -3.00000000       104.342064       1.57079411    
   3.53553391       3.53553391      -2.00000000       104.342064       1.57079411    
   3.93283010       3.01776695      -2.00000000       104.342064       1.57079411    
   3.93283010       3.01776695      -3.00000000       104.342064       1.57079411    
   3.53553391       3.53553391      -2.00000000       104.370026       1.57079327    
   3.53553391       3.53553391      -1.00000000       104.370026       1.57079327    
   3.93283010       3.01776695      -1.00000000       104.370026       1.57079327    
   3.93283010       3.01776695      -2.00000000       104.370026       1.57079327    
   3.53553391       3.53553391      -1.00000000       103.956490       1.57079339    
   3.53553391       3.53553391       0.00000000       103.956490       1.57079339    
   3.93283010       3.01776695       0.00000000       103.956490       1.57079339    
   3.93283010       3.01776695      -1.00000000       103.956490       1.57079339    
   3.93283010       3.01776695      -10.0000000       101.987885      -1.57079673    
   3.93283010       3.01776695      -9.00000000       101.987885      -1.57079673    
   4.33012676       2.50000000      -9.00000000       101.987885      -1.57079673    
   4.33012676       2.50000000      -10.0000000       101.987885      -1.57079673    
   3.93283010       3.01776695      -9.00000000       104.299026      -1.57079697    
   3.93283010       3.01776695      -8.00000000       104.299026      -1.57079697    
   4.33012676       2.50000000      -8.00000000       104.299026      -1.57079697    
   4.33012676       2.50000000      -9.00000000       104.299026      -1.57079697    
   3.93283010       3.01776695      -8.00000000       104.312027      -1.57079697    
   3.93283010       3.01776695      -7.00000000       104.312027      -1.57079697    
   4.33012676       2.50000000      -7.00000000       104.312027      -1.57079697    
   4.33012676       2.50000000      -8.00000000       104.312027      -1.57079697    
   3.93283010       3.01776695      -7.00000000       104.329300      -1.57079661    
   3.93283010       3.01776695      -6.00000000       104.329300      -1.57079661    
   4.33012676       2.50000000      -6.00000000       104.329300      -1.57079661    
   4.33012676       2.50000000      -7.00000000       104.329300      -1.57079661    
   3.93283010       3.01776695      -6.00000000       104.289101      -1.57079732    
   3.93283010       3.01776695      -5.00000000       104.289101      -1.57079732    
   4.33012676       2.50000000      -5.00000000       104.289101      -1.57079732    
   4.33012676       2.50000000      -6.00000000       104.289101      -1.57079732    
   3.93283010       3.01776695      -5.00000000       104.288574      -1.57079732    
   3.93283010       3.01776695      -4.00000000       104.288574      -1.57079732    
   4.33012676       2.50000000      -4.00000000       104.288574      -1.57079732    
   4.33012676       2.50000000      -5.00000000       104.288574      -1.57079732    
   3.93283010       3.01776695      -4.00000000       104.369598      -1.57079768    
   3.93283010       3.01776695      -3.00000000       104.369598      -1.57079768    
   4.33012676       2.50000000      -3.00000000       104.369598      -1.57079768    
   4.33012676       2.50000000      -4.00000000       104.369598      -1.57079768    
   3.93283010       3.01776695      -3.00000000       104.342049      -1.57079804    
   3.93283010       3.01776695      -2.00000000       104.342049      -1.57079804    
   4.33012676       2.50000000      -2.00000000       104.342049      -1.57079804    
   4.33012676       2.50000000      -3.00000000       104.342049      -1.57079804    
   3.93283010       3.01776695      -2.00000000       104.369850      -1.57079756    
   3.93283010       3.01776695      -1.00000000       104.369850      -1.57079756    
   4.33012676       2.50000000      -1.00000000       104.369850      -1.57079756    
   4.33012676       2.50000000      -2.00000000       104.369850      -1.57079756    
   3.93283010       3.01776695      -1.00000000       103.956467      -1.57079780    
   3.93283010       3.01776695       0.00000000       103.956467      -1.57079780    
   4.33012676       2.50000000       0.00000000       103.956467      -1.57079780    
   4.33012676       2.50000000      -1.00000000       103.956467      -1.57079780    
   2.50000000       4.33012676      -10.0000000       101.988113       1.57079566    
   2.50000000       4.33012676      -9.00000000       101.988113       1.57079566    
   3.01776695       3.93283010      -9.00000000       101.988113       1.57079566    
   3.01776695       3.93283010      -10.0000000       101.988113       1.57079566    
   2.50000000       4.33012676      -9.00000000       104.299324       1.57079554    
   2.50000000       4.33012676      -8.00000000       104.299324       1.57079554    
   3.01776695       3.93283010      -8.00000000       104.299324       1.57079554    
   3.01776695       3.93283010      -9.00000000       104.299324       1.57079554    
   2.50000000       4.33012676      -8.00000000       104.312508       1.57079506    
   2.50000000       4.33012676      -7.00000000       104.312508       1.57079506    
   3.01776695       3.93283010      -7.00000000       104.312508       1.57079506    
   3.01776695       3.93283010      -8.00000000       104.312508       1.57079506    
   2.50000000       4.33012676      -7.00000000       104.329582       1.57079518    
   2.50000000       4.33012676      -6.00000000       104.329582       1.57079518    
   3.01776695       3.93283010      -6.00000000       104.329582       1.57079518    
   3.01776695       3.93283010      -7.00000000       104.329582       1.57079518    
   2.50000000       4.33012676      -6.00000000       104.289429       1.57079494    
   2.50000000       4.33012676      -5.00000000       104.289429       1.57079494    
   3.01776695       3.93283010      -5.00000000       104.289429       1.57079494    
   3.01776695       3.93283010      -6.00000000       104.289429       1.57079494    
   2.50000000       4.33012676      -5.00000000       104.288574       1.57079494    
   2.50000000       4.33012676      -4.00000000       104.288574       1.57079494    
   3.01776695       3.93283010      -4.00000000       104.288574       1.57079494    
   3.01776695       3.93283010      -5.00000000       104.288574       1.57079494    
   2.50000000       4.33012676      -4.00000000       104.369370       1.57079399    
   2.50000000       4.33012676      -3.00000000       104.369370       1.57079399    
   3.01776695       3.93283010      -3.00000000       104.369370       1.57079399    
   3.01776695       3.93283010      -4.00000000       104.369370       1.57079399    
   2.50000000       4.33012676      -3.00000000       104.341583       1.57079339    
   2.50000000       4.33012676      -2.00000000       104.341583       1.57079339    
   3.01776695       3.93283010      -2.00000000       104.341583       1.57079339    
   3.01776695       3.93283010      -3.00000000       104.341583       1.57079339    
   2.50000000       4.33012676      -2.00000000       104.369232       1.57079339    
   2.50000000       4.33012676      -1.00000000       104.369232       1.57079339    
   3.01776695       3.93283010      -1.00000000       104.369232       1.57079339    
   3.01776695       3.93283010      -2.00000000       104.369232       1.57079339    
   2.50000000       4.33012676      -1.00000000       103.955856       1.57079351    
   2.50000000       4.33012676       0.00000000       103.955856       1.57079351    
   3.01776695       3.93283010       0.00000000       103.955856       1.57079351    
   3.01776695       3.93283010      -1.00000000       103.955856       1.57079351    
   3.01776695       3.93283010      -10.0000000       101.988564      -1.57079685    
   3.01776695       3.93283010      -9.00000000       101.988564      -1.57079685    
   3.53553391       3.53553391      -9.00000000       101.988564      -1.57079685    
   3.53553391       3.53553391      -10.0000000       101.988564      -1.57079685    
   3.01776695       3.93283010      -9.00000000       104.299866      -1.57079685    
   3.01776695       3.93283010      -8.00000000       104.299866      -1.57079685    
   3.53553391       3.53553391      -8.00000000       104.299866      -1.57079685    
   3.53553391       3.53553391      -9.00000000       104.299866      -1.57079685    
   3.01776695       3.93283010      -8.00000000       104.312828      -1.57079720    
   3.01776695       3.93283010      -7.00000000       104.312828      -1.57079720    
   3.53553391       3.53553391      -7.00000000       104.312828      -1.57079720    
   3.53553391       3.53553391      -8.00000000       104.312828      -1.57079720    
   3.01776695       3.93283010      -7.00000000       104.329834      -1.57079720    
   3.01776695       3.93283010      -6.00000000       104.329834      -1.57079720    
   3.53553391       3.53553391      -6.00000000       104.329834      -1.57079720    
   3.53553391       3.53553391      -7.00000000       104.329834      -1.57079720    
   3.01776695       3.93283010      -6.00000000       104.289948      -1.57079720    
   3.01776695       3.93283010      -5.00000000       104.289948      -1.57079720    
   3.53553391       3.53553391      -5.00000000       104.289948      -1.57079720    
   3.53553391       3.53553391      -6.00000000       104.289948      -1.57079720    
   3.01776695       3.93283010      -5.00000000       104.289696      -1.57079780    
   3.01776695       3.93283010      -4.00000000       104.289696      -1.57079780    
   3.53553391       3.53553391      -4.00000000       104.289696      -1.57079780    
   3.53553391       3.53553391      -5.00000000       104.289696      -1.57079780    
   3.01776695       3.93283010      -4.00000000       104.370071      -1.57079816    
   3.01776695       3.93283010      -3.00000000       104.370071      -1.57079816    
   3.53553391       3.53553391      -3.00000000       104.370071      -1.57079816    
   3.53553391       3.53553391      -4.00000000       104.370071      -1.57079816    
   3.01776695       3.93283010      -3.00000000       104.342789      -1.57079804    
   3.01776695       3.93283010      -2.00000000       104.342789      -1.57079804    
   3.53553391       3.53553391      -2.00000000       104.342789      -1.57079804    
   3.53553391       3.53553391      -3.00000000       104.342789      -1.57079804    
   3.01776695       3.93283010      -2.00000000       104.370552      -1.57079780    
   3.01776695       3.93283010      -1.00000000       104.370552      -1.57079780    
   3.53553391       3.53553391      -1.00000000       104.370552      -1.57079780    
   3.53553391       3.53553391      -2.00000000       104.370552      -1.57079780    
   3.01776695       3.93283010      -1.00000000       103.957024      -1.57079780    
   3.01776695       3.93283010       0.00000000       103.957024      -1.57079780    
   3.53553391       3.53553391       0.00000000       103.957024      -1.57079780    
   3.53553391       3.53553391      -1.00000000       103.957024      -1.57079780    
   1.29409504       4.82962894      -10.0000000       101.988884       1.57079554    
   1.29409504       4.82962894      -9.00000000       101.988884       1.57079554    
   1.89704800       4.57987785      -9.00000000       101.988884       1.57079554    
   1.89704800       4.57987785      -10.0000000       101.988884       1.57079554    
   1.29409504       4.82962894      -9.00000000       104.300362       1.57079554    
   1.29409504       4.82962894      -8.00000000       104.300362       1.57079554    
   1.89704800       4.57987785      -8.00000000       104.300362       1.57079554    
   1.89704800       4.57987785      -9.00000000       104.300362       1.57079554    
   1.29409504       4.82962894      -8.00000000       104.313324       1.57079530    
   1.29409504       4.82962894      -7.00000000       104.313324       1.57079530    
   1.89704800       4.57987785      -7.00000000       104.313324       1.57079530    
   1.89704800       4.57987785      -8.00000000       104.313324       1.57079530    
   1.29409504       4.82962894      -7.00000000       104.330345       1.57079506    
   1.29409504       4.82962894      -6.00000000       104.330345       1.57079506    
   1.89704800       4.57987785      -6.00000000       104.330345       1.57079506    
   1.89704800       4.57987785      -7.00000000       104.330345       1.57079506    
   1.29409504       4.82962894      -6.00000000       104.290459       1.57079494    
   1.29409504       4.82962894      -5.00000000       104.290459       1.57079494    
   1.89704800       4.57987785      -5.00000000       104.290459       1.57079494    
   1.89704800       4.57987785      -6.00000000       104.290459       1.57079494    
   1.29409504       4.82962894      -5.00000000       104.289825       1.57079470    
   1.29409504       4.82962894      -4.00000000       104.289825       1.57079470    
   1.89704800       4.57987785      -4.00000000       104.289825       1.57079470    
   1.89704800       4.57987785      -5.00000000       104.289825       1.57079470    
   1.29409504       4.82962894      -4.00000000       104.370026       1.57079363    
   1.29409504       4.82962894      -3.00000000       104.370026       1.57079363    
   1.89704800       4.57987785      -3.00000000       104.370026       1.57079363    