 VARIABLES="X" "Y" "Z" "abs(p) (Pa)" "angle(p) (rad)"
ZONE N=   1080,E =     600, F=FEPOINT, ET=QUADRILATERAL
   4.82962894       1.29409504      -10.0000000       2784.46069      -1.39236355    
   4.82962894       1.29409504      -9.00000000       2784.46069      -1.39236355    
   4.91481400      0.647047520      -9.00000000       2784.46069      -1.39236355    
   4.91481400      0.647047520      -10.0000000       2784.46069      -1.39236355    
   4.82962894       1.29409504      -9.00000000       3421.74243      -1.40397966    
   4.82962894       1.29409504      -8.00000000       3421.74243      -1.40397966    
   4.91481400      0.647047520      -8.00000000       3421.74243      -1.40397966    
   4.91481400      0.647047520      -9.00000000       3421.74243      -1.40397966    
   4.82962894       1.29409504      -8.00000000       4917.53223      -1.44339001    
   4.82962894       1.29409504      -7.00000000       4917.53223      -1.44339001    
   4.91481400      0.647047520      -7.00000000       4917.53223      -1.44339001    
   4.91481400      0.647047520      -8.00000000       4917.53223      -1.44339001    
   4.82962894       1.29409504      -7.00000000       6777.11084      -1.47089541    
   4.82962894       1.29409504      -6.00000000       6777.11084      -1.47089541    
   4.91481400      0.647047520      -6.00000000       6777.11084      -1.47089541    
   4.91481400      0.647047520      -7.00000000       6777.11084      -1.47089541    
   4.82962894       1.29409504      -6.00000000       8829.66113      -1.48862910    
   4.82962894       1.29409504      -5.00000000       8829.66113      -1.48862910    
   4.91481400      0.647047520      -5.00000000       8829.66113      -1.48862910    
   4.91481400      0.647047520      -6.00000000       8829.66113      -1.48862910    
   4.82962894       1.29409504      -5.00000000       10974.5635      -1.50032592    
   4.82962894       1.29409504      -4.00000000       10974.5635      -1.50032592    
   4.91481400      0.647047520      -4.00000000       10974.5635      -1.50032592    
   4.91481400      0.647047520      -5.00000000       10974.5635      -1.50032592    
   4.82962894       1.29409504      -4.00000000       13131.4229      -1.50824022    
   4.82962894       1.29409504      -3.00000000       13131.4229      -1.50824022    
   4.91481400      0.647047520      -3.00000000       13131.4229      -1.50824022    
   4.91481400      0.647047520      -4.00000000       13131.4229      -1.50824022    
   4.82962894       1.29409504      -3.00000000       15220.3926      -1.51362193    
   4.82962894       1.29409504      -2.00000000       15220.3926      -1.51362193    
   4.91481400      0.647047520      -2.00000000       15220.3926      -1.51362193    
   4.91481400      0.647047520      -3.00000000       15220.3926      -1.51362193    
   4.82962894       1.29409504      -2.00000000       17154.8652      -1.51716733    
   4.82962894       1.29409504      -1.00000000       17154.8652      -1.51716733    
   4.91481400      0.647047520      -1.00000000       17154.8652      -1.51716733    
   4.91481400      0.647047520      -2.00000000       17154.8652      -1.51716733    
   4.82962894       1.29409504      -1.00000000       18779.4746      -1.51910019    
   4.82962894       1.29409504       0.00000000       18779.4746      -1.51910019    
   4.91481400      0.647047520       0.00000000       18779.4746      -1.51910019    
   4.91481400      0.647047520      -1.00000000       18779.4746      -1.51910019    
   4.91481400      0.647047520      -10.0000000       2835.87183      -1.39268017    
   4.91481400      0.647047520      -9.00000000       2835.87183      -1.39268017    
   5.00000000       0.00000000      -9.00000000       2835.87183      -1.39268017    
   5.00000000       0.00000000      -10.0000000       2835.87183      -1.39268017    
   4.91481400      0.647047520      -9.00000000       3481.43799      -1.40411317    
   4.91481400      0.647047520      -8.00000000       3481.43799      -1.40411317    
   5.00000000       0.00000000      -8.00000000       3481.43799      -1.40411317    
   5.00000000       0.00000000      -9.00000000       3481.43799      -1.40411317    
   4.91481400      0.647047520      -8.00000000       4999.21484      -1.44338739    
   4.91481400      0.647047520      -7.00000000       4999.21484      -1.44338739    
   5.00000000       0.00000000      -7.00000000       4999.21484      -1.44338739    
   5.00000000       0.00000000      -8.00000000       4999.21484      -1.44338739    
   4.91481400      0.647047520      -7.00000000       6886.79639      -1.47085118    
   4.91481400      0.647047520      -6.00000000       6886.79639      -1.47085118    
   5.00000000       0.00000000      -6.00000000       6886.79639      -1.47085118    
   5.00000000       0.00000000      -7.00000000       6886.79639      -1.47085118    
   4.91481400      0.647047520      -6.00000000       8970.50000      -1.48857355    
   4.91481400      0.647047520      -5.00000000       8970.50000      -1.48857355    
   5.00000000       0.00000000      -5.00000000       8970.50000      -1.48857355    
   5.00000000       0.00000000      -6.00000000       8970.50000      -1.48857355    
   4.91481400      0.647047520      -5.00000000       11148.1123      -1.50026906    
   4.91481400      0.647047520      -4.00000000       11148.1123      -1.50026906    
   5.00000000       0.00000000      -4.00000000       11148.1123      -1.50026906    
   5.00000000       0.00000000      -5.00000000       11148.1123      -1.50026906    
   4.91481400      0.647047520      -4.00000000       13337.8193      -1.50818408    
   4.91481400      0.647047520      -3.00000000       13337.8193      -1.50818408    
   5.00000000       0.00000000      -3.00000000       13337.8193      -1.50818408    
   5.00000000       0.00000000      -4.00000000       13337.8193      -1.50818408    
   4.91481400      0.647047520      -3.00000000       15458.5586      -1.51356673    
   4.91481400      0.647047520      -2.00000000       15458.5586      -1.51356673    
   5.00000000       0.00000000      -2.00000000       15458.5586      -1.51356673    
   5.00000000       0.00000000      -3.00000000       15458.5586      -1.51356673    
   4.91481400      0.647047520      -2.00000000       17422.2305      -1.51711214    
   4.91481400      0.647047520      -1.00000000       17422.2305      -1.51711214    
   5.00000000       0.00000000      -1.00000000       17422.2305      -1.51711214    
   5.00000000       0.00000000      -2.00000000       17422.2305      -1.51711214    
   4.91481400      0.647047520      -1.00000000       19071.1621      -1.51904380    
   4.91481400      0.647047520       0.00000000       19071.1621      -1.51904380    
   5.00000000       0.00000000       0.00000000       19071.1621      -1.51904380    
   5.00000000       0.00000000      -1.00000000       19071.1621      -1.51904380    
   4.33012676       2.50000000      -10.0000000       2543.29614      -1.39201069    
   4.33012676       2.50000000      -9.00000000       2543.29614      -1.39201069    
   4.57987785       1.89704800      -9.00000000       2543.29614      -1.39201069    
   4.57987785       1.89704800      -10.0000000       2543.29614      -1.39201069    
   4.33012676       2.50000000      -9.00000000       3128.86304      -1.40383041    
   4.33012676       2.50000000      -8.00000000       3128.86304      -1.40383041    
   4.57987785       1.89704800      -8.00000000       3128.86304      -1.40383041    
   4.57987785       1.89704800      -9.00000000       3128.86304      -1.40383041    
   4.33012676       2.50000000      -8.00000000       4500.72998      -1.44339323    
   4.33012676       2.50000000      -7.00000000       4500.72998      -1.44339323    
   4.57987785       1.89704800      -7.00000000       4500.72998      -1.44339323    
   4.57987785       1.89704800      -8.00000000       4500.72998      -1.44339323    
   4.33012676       2.50000000      -7.00000000       6205.58545      -1.47094452    
   4.33012676       2.50000000      -6.00000000       6205.58545      -1.47094452    
   4.57987785       1.89704800      -6.00000000       6205.58545      -1.47094452    
   4.57987785       1.89704800      -7.00000000       6205.58545      -1.47094452    
   4.33012676       2.50000000      -6.00000000       8087.09033      -1.48868966    
   4.33012676       2.50000000      -5.00000000       8087.09033      -1.48868966    
   4.57987785       1.89704800      -5.00000000       8087.09033      -1.48868966    
   4.57987785       1.89704800      -6.00000000       8087.09033      -1.48868966    
   4.33012676       2.50000000      -5.00000000       10053.1113      -1.50038886    
   4.33012676       2.50000000      -4.00000000       10053.1113      -1.50038886    
   4.57987785       1.89704800      -4.00000000       10053.1113      -1.50038886    
   4.57987785       1.89704800      -5.00000000       10053.1113      -1.50038886    
   4.33012676       2.50000000      -4.00000000       12030.1445      -1.50830281    
   4.33012676       2.50000000      -3.00000000       12030.1445      -1.50830281    
   4.57987785       1.89704800      -3.00000000       12030.1445      -1.50830281    
   4.57987785       1.89704800      -4.00000000       12030.1445      -1.50830281    
   4.33012676       2.50000000      -3.00000000       13944.9873      -1.51368320    
   4.33012676       2.50000000      -2.00000000       13944.9873      -1.51368320    
   4.57987785       1.89704800      -2.00000000       13944.9873      -1.51368320    
   4.57987785       1.89704800      -3.00000000       13944.9873      -1.51368320    
   4.33012676       2.50000000      -2.00000000       15718.4600      -1.51722860    
   4.33012676       2.50000000      -1.00000000       15718.4600      -1.51722860    
   4.57987785       1.89704800      -1.00000000       15718.4600      -1.51722860    
   4.57987785       1.89704800      -2.00000000       15718.4600      -1.51722860    
   4.33012676       2.50000000      -1.00000000       17208.0234      -1.51916230    
   4.33012676       2.50000000       0.00000000       17208.0234      -1.51916230    
   4.57987785       1.89704800       0.00000000       17208.0234      -1.51916230    
   4.57987785       1.89704800      -1.00000000       17208.0234      -1.51916230    
   4.57987785       1.89704800      -10.0000000       2694.02271      -1.39300752    
   4.57987785       1.89704800      -9.00000000       2694.02271      -1.39300752    
   4.82962894       1.29409504      -9.00000000       2694.02271      -1.39300752    
   4.82962894       1.29409504      -10.0000000       2694.02271      -1.39300752    
   4.57987785       1.89704800      -9.00000000       3303.87573      -1.40425241    
   4.57987785       1.89704800      -8.00000000       3303.87573      -1.40425241    
   4.82962894       1.29409504      -8.00000000       3303.87573      -1.40425241    
   4.82962894       1.29409504      -9.00000000       3303.87573      -1.40425241    
   4.57987785       1.89704800      -8.00000000       4740.21045      -1.44338417    
   4.57987785       1.89704800      -7.00000000       4740.21045      -1.44338417    
   4.82962894       1.29409504      -7.00000000       4740.21045      -1.44338417    
   4.82962894       1.29409504      -8.00000000       4740.21045      -1.44338417    
   4.57987785       1.89704800      -7.00000000       6527.14600      -1.47080529    
   4.57987785       1.89704800      -6.00000000       6527.14600      -1.47080529    
   4.82962894       1.29409504      -6.00000000       6527.14600      -1.47080529    
   4.82962894       1.29409504      -7.00000000       6527.14600      -1.47080529    
   4.57987785       1.89704800      -6.00000000       8500.01855      -1.48851645    
   4.57987785       1.89704800      -5.00000000       8500.01855      -1.48851645    
   4.82962894       1.29409504      -5.00000000       8500.01855      -1.48851645    
   4.82962894       1.29409504      -6.00000000       8500.01855      -1.48851645    
   4.57987785       1.89704800      -5.00000000       10561.9434      -1.50021052    
   4.57987785       1.89704800      -4.00000000       10561.9434      -1.50021052    
   4.82962894       1.29409504      -4.00000000       10561.9434      -1.50021052    
   4.82962894       1.29409504      -5.00000000       10561.9434      -1.50021052    
   4.57987785       1.89704800      -4.00000000       12635.2715      -1.50812554    
   4.57987785       1.89704800      -3.00000000       12635.2715      -1.50812554    
   4.82962894       1.29409504      -3.00000000       12635.2715      -1.50812554    
   4.82962894       1.29409504      -4.00000000       12635.2715      -1.50812554    
   4.57987785       1.89704800      -3.00000000       14643.2520      -1.51350915    
   4.57987785       1.89704800      -2.00000000       14643.2520      -1.51350915    
   4.82962894       1.29409504      -2.00000000       14643.2520      -1.51350915    
   4.82962894       1.29409504      -3.00000000       14643.2520      -1.51350915    
   4.57987785       1.89704800      -2.00000000       16502.2988      -1.51705456    
   4.57987785       1.89704800      -1.00000000       16502.2988      -1.51705456    
   4.82962894       1.29409504      -1.00000000       16502.2988      -1.51705456    
   4.82962894       1.29409504      -2.00000000       16502.2988      -1.51705456    
   4.57987785       1.89704800      -1.00000000       18063.1582      -1.51898551    
   4.57987785       1.89704800       0.00000000       18063.1582      -1.51898551    
   4.82962894       1.29409504       0.00000000       18063.1582      -1.51898551    
   4.82962894       1.29409504      -1.00000000       18063.1582      -1.51898551    
   3.53553391       3.53553391      -10.0000000       2128.80835      -1.39154947    
   3.53553391       3.53553391      -9.00000000       2128.80835      -1.39154947    
   3.93283010       3.01776695      -9.00000000       2128.80835      -1.39154947    
   3.93283010       3.01776695      -10.0000000       2128.80835      -1.39154947    
   3.53553391       3.53553391      -9.00000000       2622.75684      -1.40363634    
   3.53553391       3.53553391      -8.00000000       2622.75684      -1.40363634    
   3.93283010       3.01776695      -8.00000000       2622.75684      -1.40363634    
   3.93283010       3.01776695      -9.00000000       2622.75684      -1.40363634    
   3.53553391       3.53553391      -8.00000000       3777.20264      -1.44339705    
   3.53553391       3.53553391      -7.00000000       3777.20264      -1.44339705    
   3.93283010       3.01776695      -7.00000000       3777.20264      -1.44339705    
   3.93283010       3.01776695      -8.00000000       3777.20264      -1.44339705    
   3.53553391       3.53553391      -7.00000000       5211.15479      -1.47100759    
   3.53553391       3.53553391      -6.00000000       5211.15479      -1.47100759    
   3.93283010       3.01776695      -6.00000000       5211.15479      -1.47100759    
   3.93283010       3.01776695      -7.00000000       5211.15479      -1.47100759    
   3.53553391       3.53553391      -6.00000000       6793.39404      -1.48876941    
   3.53553391       3.53553391      -5.00000000       6793.39404      -1.48876941    
   3.93283010       3.01776695      -5.00000000       6793.39404      -1.48876941    
   3.93283010       3.01776695      -6.00000000       6793.39404      -1.48876941    
   3.53553391       3.53553391      -5.00000000       8446.56152      -1.50047076    
   3.53553391       3.53553391      -4.00000000       8446.56152      -1.50047076    
   3.93283010       3.01776695      -4.00000000       8446.56152      -1.50047076    
   3.93283010       3.01776695      -5.00000000       8446.56152      -1.50047076    
   3.53553391       3.53553391      -4.00000000       10109.0312      -1.50838315    
   3.53553391       3.53553391      -3.00000000       10109.0312      -1.50838315    
   3.93283010       3.01776695      -3.00000000       10109.0312      -1.50838315    
   3.93283010       3.01776695      -4.00000000       10109.0312      -1.50838315    
   3.53553391       3.53553391      -3.00000000       11719.2627      -1.51376283    
   3.53553391       3.53553391      -2.00000000       11719.2627      -1.51376283    
   3.93283010       3.01776695      -2.00000000       11719.2627      -1.51376283    
   3.93283010       3.01776695      -3.00000000       11719.2627      -1.51376283    
   3.53553391       3.53553391      -2.00000000       13210.8408      -1.51730776    
   3.53553391       3.53553391      -1.00000000       13210.8408      -1.51730776    
   3.93283010       3.01776695      -1.00000000       13210.8408      -1.51730776    
   3.93283010       3.01776695      -2.00000000       13210.8408      -1.51730776    
   3.53553391       3.53553391      -1.00000000       14463.8613      -1.51924324    
   3.53553391       3.53553391       0.00000000       14463.8613      -1.51924324    
   3.93283010       3.01776695       0.00000000       14463.8613      -1.51924324    
   3.93283010       3.01776695      -1.00000000       14463.8613      -1.51924324    
   3.93283010       3.01776695      -10.0000000       2368.57983      -1.39339864    
   3.93283010       3.01776695      -9.00000000       2368.57983      -1.39339864    
   4.33012676       2.50000000      -9.00000000       2368.57983      -1.39339864    
   4.33012676       2.50000000      -10.0000000       2368.57983      -1.39339864    
   3.93283010       3.01776695      -9.00000000       2901.16333      -1.40441859    
   3.93283010       3.01776695      -8.00000000       2901.16333      -1.40441859    
   4.33012676       2.50000000      -8.00000000       2901.16333      -1.40441859    
   4.33012676       2.50000000      -9.00000000       2901.16333      -1.40441859    
   3.93283010       3.01776695      -8.00000000       4158.16992      -1.44338036    
   3.93283010       3.01776695      -7.00000000       4158.16992      -1.44338036    
   4.33012676       2.50000000      -7.00000000       4158.16992      -1.44338036    
   4.33012676       2.50000000      -8.00000000       4158.16992      -1.44338036    
   3.93283010       3.01776695      -7.00000000       5722.69141      -1.47075021    
   3.93283010       3.01776695      -6.00000000       5722.69141      -1.47075021    
   4.33012676       2.50000000      -6.00000000       5722.69141      -1.47075021    
   4.33012676       2.50000000      -7.00000000       5722.69141      -1.47075021    
   3.93283010       3.01776695      -6.00000000       7450.28076      -1.48844767    
   3.93283010       3.01776695      -5.00000000       7450.28076      -1.48844767    
   4.33012676       2.50000000      -5.00000000       7450.28076      -1.48844767    
   4.33012676       2.50000000      -6.00000000       7450.28076      -1.48844767    
   3.93283010       3.01776695      -5.00000000       9255.99121      -1.50013971    
   3.93283010       3.01776695      -4.00000000       9255.99121      -1.50013971    
   4.33012676       2.50000000      -4.00000000       9255.99121      -1.50013971    
   4.33012676       2.50000000      -5.00000000       9255.99121      -1.50013971    
   3.93283010       3.01776695      -4.00000000       11071.6455      -1.50805521    
   3.93283010       3.01776695      -3.00000000       11071.6455      -1.50805521    
   4.33012676       2.50000000      -3.00000000       11071.6455      -1.50805521    
   4.33012676       2.50000000      -4.00000000       11071.6455      -1.50805521    
   3.93283010       3.01776695      -3.00000000       12830.0332      -1.51343977    
   3.93283010       3.01776695      -2.00000000       12830.0332      -1.51343977    
   4.33012676       2.50000000      -2.00000000       12830.0332      -1.51343977    
   4.33012676       2.50000000      -3.00000000       12830.0332      -1.51343977    
   3.93283010       3.01776695      -2.00000000       14457.7510      -1.51698542    
   3.93283010       3.01776695      -1.00000000       14457.7510      -1.51698542    
   4.33012676       2.50000000      -1.00000000       14457.7510      -1.51698542    
   4.33012676       2.50000000      -2.00000000       14457.7510      -1.51698542    
   3.93283010       3.01776695      -1.00000000       15824.2051      -1.51891506    
   3.93283010       3.01776695       0.00000000       15824.2051      -1.51891506    
   4.33012676       2.50000000       0.00000000       15824.2051      -1.51891506    
   4.33012676       2.50000000      -1.00000000       15824.2051      -1.51891506    
   2.50000000       4.33012676      -10.0000000       1569.24695      -1.39079905    
   2.50000000       4.33012676      -9.00000000       1569.24695      -1.39079905    
   3.01776695       3.93283010      -9.00000000       1569.24695      -1.39079905    
   3.01776695       3.93283010      -10.0000000       1569.24695      -1.39079905    
   2.50000000       4.33012676      -9.00000000       1937.91418      -1.40332246    
   2.50000000       4.33012676      -8.00000000       1937.91418      -1.40332246    
   3.01776695       3.93283010      -8.00000000       1937.91418      -1.40332246    
   3.01776695       3.93283010      -9.00000000       1937.91418      -1.40332246    
   2.50000000       4.33012676      -8.00000000       2796.26782      -1.44340324    
   2.50000000       4.33012676      -7.00000000       2796.26782      -1.44340324    
   3.01776695       3.93283010      -7.00000000       2796.26782      -1.44340324    
   3.01776695       3.93283010      -8.00000000       2796.26782      -1.44340324    
   2.50000000       4.33012676      -7.00000000       3861.59375      -1.47111034    
   2.50000000       4.33012676      -6.00000000       3861.59375      -1.47111034    
   3.01776695       3.93283010      -6.00000000       3861.59375      -1.47111034    
   3.01776695       3.93283010      -7.00000000       3861.59375      -1.47111034    
   2.50000000       4.33012676      -6.00000000       5036.74463      -1.48889625    
   2.50000000       4.33012676      -5.00000000       5036.74463      -1.48889625    
   3.01776695       3.93283010      -5.00000000       5036.74463      -1.48889625    
   3.01776695       3.93283010      -6.00000000       5036.74463      -1.48889625    
   2.50000000       4.33012676      -5.00000000       6264.38672      -1.50060189    
   2.50000000       4.33012676      -4.00000000       6264.38672      -1.50060189    
   3.01776695       3.93283010      -4.00000000       6264.38672      -1.50060189    
   3.01776695       3.93283010      -5.00000000       6264.38672      -1.50060189    
   2.50000000       4.33012676      -4.00000000       7499.00488      -1.50851321    
   2.50000000       4.33012676      -3.00000000       7499.00488      -1.50851321    
   3.01776695       3.93283010      -3.00000000       7499.00488      -1.50851321    
   3.01776695       3.93283010      -4.00000000       7499.00488      -1.50851321    
   2.50000000       4.33012676      -3.00000000       8694.87891      -1.51389050    
   2.50000000       4.33012676      -2.00000000       8694.87891      -1.51389050    
   3.01776695       3.93283010      -2.00000000       8694.87891      -1.51389050    
   3.01776695       3.93283010      -3.00000000       8694.87891      -1.51389050    
   2.50000000       4.33012676      -2.00000000       9802.92578      -1.51743543    
   2.50000000       4.33012676      -1.00000000       9802.92578      -1.51743543    
   3.01776695       3.93283010      -1.00000000       9802.92578      -1.51743543    
   3.01776695       3.93283010      -2.00000000       9802.92578      -1.51743543    
   2.50000000       4.33012676      -1.00000000       10734.0186      -1.51937294    
   2.50000000       4.33012676       0.00000000       10734.0186      -1.51937294    
   3.01776695       3.93283010       0.00000000       10734.0186      -1.51937294    
   3.01776695       3.93283010      -1.00000000       10734.0186      -1.51937294    
   3.01776695       3.93283010      -10.0000000       1881.72168      -1.39395893    
   3.01776695       3.93283010      -9.00000000       1881.72168      -1.39395893    
   3.53553391       3.53553391      -9.00000000       1881.72168      -1.39395893    
   3.53553391       3.53553391      -10.0000000       1881.72168      -1.39395893    
   3.01776695       3.93283010      -9.00000000       2300.73657      -1.40465832    
   3.01776695       3.93283010      -8.00000000       2300.73657      -1.40465832    
   3.53553391       3.53553391      -8.00000000       2300.73657      -1.40465832    
   3.53553391       3.53553391      -9.00000000       2300.73657      -1.40465832    
   3.01776695       3.93283010      -8.00000000       3292.75220      -1.44337535    
   3.01776695       3.93283010      -7.00000000       3292.75220      -1.44337535    
   3.53553391       3.53553391      -7.00000000       3292.75220      -1.44337535    
   3.53553391       3.53553391      -8.00000000       3292.75220      -1.44337535    
   3.01776695       3.93283010      -7.00000000       4528.24219      -1.47067082    
   3.01776695       3.93283010      -6.00000000       4528.24219      -1.47067082    
   3.53553391       3.53553391      -6.00000000       4528.24219      -1.47067082    
   3.53553391       3.53553391      -7.00000000       4528.24219      -1.47067082    
   3.01776695       3.93283010      -6.00000000       5892.81592      -1.48834825    
   3.01776695       3.93283010      -5.00000000       5892.81592      -1.48834825    
   3.53553391       3.53553391      -5.00000000       5892.81592      -1.48834825    
   3.53553391       3.53553391      -6.00000000       5892.81592      -1.48834825    
   3.01776695       3.93283010      -5.00000000       7319.25830      -1.50003695    
   3.01776695       3.93283010      -4.00000000       7319.25830      -1.50003695    
   3.53553391       3.53553391      -4.00000000       7319.25830      -1.50003695    
   3.53553391       3.53553391      -5.00000000       7319.25830      -1.50003695    
   3.01776695       3.93283010      -4.00000000       8753.50488      -1.50795352    
   3.01776695       3.93283010      -3.00000000       8753.50488      -1.50795352    
   3.53553391       3.53553391      -3.00000000       8753.50488      -1.50795352    
   3.53553391       3.53553391      -4.00000000       8753.50488      -1.50795352    
   3.01776695       3.93283010      -3.00000000       10142.4521      -1.51334000    
   3.01776695       3.93283010      -2.00000000       10142.4521      -1.51334000    
   3.53553391       3.53553391      -2.00000000       10142.4521      -1.51334000    
   3.53553391       3.53553391      -3.00000000       10142.4521      -1.51334000    
   3.01776695       3.93283010      -2.00000000       11427.9336      -1.51688576    
   3.01776695       3.93283010      -1.00000000       11427.9336      -1.51688576    
   3.53553391       3.53553391      -1.00000000       11427.9336      -1.51688576    
   3.53553391       3.53553391      -2.00000000       11427.9336      -1.51688576    
   3.01776695       3.93283010      -1.00000000       12506.8379      -1.51881349    
   3.01776695       3.93283010       0.00000000       12506.8379      -1.51881349    
   3.53553391       3.53553391       0.00000000       12506.8379      -1.51881349    
   3.53553391       3.53553391      -1.00000000       12506.8379      -1.51881349    
   1.29409504       4.82962894      -10.0000000       902.746887      -1.38903856    
   1.29409504       4.82962894      -9.00000000       902.746887      -1.38903856    
   1.89704800       4.57987785      -9.00000000       902.746887      -1.38903856    
   1.89704800       4.57987785      -10.0000000       902.746887      -1.38903856    
   1.29409504       4.82962894      -9.00000000       1121.00757      -1.40258825    
   1.29409504       4.82962894      -8.00000000       1121.00757      -1.40258825    
   1.89704800       4.57987785      -8.00000000       1121.00757      -1.40258825    
   1.89704800       4.57987785      -9.00000000       1121.00757      -1.40258825    
   1.29409504       4.82962894      -8.00000000       1624.77393      -1.44341946    
   1.29409504       4.82962894      -7.00000000       1624.77393      -1.44341946    
   1.89704800       4.57987785      -7.00000000       1624.77393      -1.44341946    
   1.89704800       4.57987785      -8.00000000       1624.77393      -1.44341946    
   1.29409504       4.82962894      -7.00000000       2248.87183      -1.47134793    
   1.29409504       4.82962894      -6.00000000       2248.87183      -1.47134793    
   1.89704800       4.57987785      -6.00000000       2248.87183      -1.47134793    
   1.89704800       4.57987785      -7.00000000       2248.87183      -1.47134793    
   1.29409504       4.82962894      -6.00000000       2936.84521      -1.48919213    
   1.29409504       4.82962894      -5.00000000       2936.84521      -1.48919213    
   1.89704800       4.57987785      -5.00000000       2936.84521      -1.48919213    
   1.89704800       4.57987785      -6.00000000       2936.84521      -1.48919213    
   1.29409504       4.82962894      -5.00000000       3655.30249      -1.50090456    
   1.29409504       4.82962894      -4.00000000       3655.30249      -1.50090456    
   1.89704800       4.57987785      -4.00000000       3655.30249      -1.50090456    
   1.89704800       4.57987785      -5.00000000       3655.30249      -1.50090456    
   1.29409504       4.82962894      -4.00000000       4377.92334      -1.50881279    
   1.29409504       4.82962894      -3.00000000       4377.92334      -1.50881279    
   1.89704800       4.57987785      -3.00000000       4377.92334      -1.50881279    