 VARIABLES="X" "Y" "Z" "abs(p) (Pa)" "angle(p) (rad)"
ZONE N=   1080,E =     600, F=FEPOINT, ET=QUADRILATERAL
   4.82962894       1.29409504      -10.0000000       1195.51794      -2.96780992    
   4.82962894       1.29409504      -9.00000000       1195.51794      -2.96780992    
   4.91481400      0.647047520      -9.00000000       1195.51794      -2.96780992    
   4.91481400      0.647047520      -10.0000000       1195.51794      -2.96780992    
   4.82962894       1.29409504      -9.00000000       1529.38745      -3.07849073    
   4.82962894       1.29409504      -8.00000000       1529.38745      -3.07849073    
   4.91481400      0.647047520      -8.00000000       1529.38745      -3.07849073    
   4.91481400      0.647047520      -9.00000000       1529.38745      -3.07849073    
   4.82962894       1.29409504      -8.00000000       1902.12878      -3.12406707    
   4.82962894       1.29409504      -7.00000000       1902.12878      -3.12406707    
   4.91481400      0.647047520      -7.00000000       1902.12878      -3.12406707    
   4.91481400      0.647047520      -8.00000000       1902.12878      -3.12406707    
   4.82962894       1.29409504      -7.00000000       2338.84863       3.13497090    
   4.82962894       1.29409504      -6.00000000       2338.84863       3.13497090    
   4.91481400      0.647047520      -6.00000000       2338.84863       3.13497090    
   4.91481400      0.647047520      -7.00000000       2338.84863       3.13497090    
   4.82962894       1.29409504      -6.00000000       2859.41895       3.12141275    
   4.82962894       1.29409504      -5.00000000       2859.41895       3.12141275    
   4.91481400      0.647047520      -5.00000000       2859.41895       3.12141275    
   4.91481400      0.647047520      -6.00000000       2859.41895       3.12141275    
   4.82962894       1.29409504      -5.00000000       3484.87427       3.11349797    
   4.82962894       1.29409504      -4.00000000       3484.87427       3.11349797    
   4.91481400      0.647047520      -4.00000000       3484.87427       3.11349797    
   4.91481400      0.647047520      -5.00000000       3484.87427       3.11349797    
   4.82962894       1.29409504      -4.00000000       4239.04590       3.10893559    
   4.82962894       1.29409504      -3.00000000       4239.04590       3.10893559    
   4.91481400      0.647047520      -3.00000000       4239.04590       3.10893559    
   4.91481400      0.647047520      -4.00000000       4239.04590       3.10893559    
   4.82962894       1.29409504      -3.00000000       5149.19629       3.10672808    
   4.82962894       1.29409504      -2.00000000       5149.19629       3.10672808    
   4.91481400      0.647047520      -2.00000000       5149.19629       3.10672808    
   4.91481400      0.647047520      -3.00000000       5149.19629       3.10672808    
   4.82962894       1.29409504      -2.00000000       6248.82227       3.10605431    
   4.82962894       1.29409504      -1.00000000       6248.82227       3.10605431    
   4.91481400      0.647047520      -1.00000000       6248.82227       3.10605431    
   4.91481400      0.647047520      -2.00000000       6248.82227       3.10605431    
   4.82962894       1.29409504      -1.00000000       7570.85449       3.10687876    
   4.82962894       1.29409504       0.00000000       7570.85449       3.10687876    
   4.91481400      0.647047520       0.00000000       7570.85449       3.10687876    
   4.91481400      0.647047520      -1.00000000       7570.85449       3.10687876    
   4.91481400      0.647047520      -10.0000000       1222.31018      -2.96864319    
   4.91481400      0.647047520      -9.00000000       1222.31018      -2.96864319    
   5.00000000       0.00000000      -9.00000000       1222.31018      -2.96864319    
   5.00000000       0.00000000      -10.0000000       1222.31018      -2.96864319    
   4.91481400      0.647047520      -9.00000000       1567.64453      -3.07794189    
   4.91481400      0.647047520      -8.00000000       1567.64453      -3.07794189    
   5.00000000       0.00000000      -8.00000000       1567.64453      -3.07794189    
   5.00000000       0.00000000      -9.00000000       1567.64453      -3.07794189    
   4.91481400      0.647047520      -8.00000000       1951.30713      -3.12291479    
   4.91481400      0.647047520      -7.00000000       1951.30713      -3.12291479    
   5.00000000       0.00000000      -7.00000000       1951.30713      -3.12291479    
   5.00000000       0.00000000      -8.00000000       1951.30713      -3.12291479    
   4.91481400      0.647047520      -7.00000000       2400.16772       3.13642907    
   4.91481400      0.647047520      -6.00000000       2400.16772       3.13642907    
   5.00000000       0.00000000      -6.00000000       2400.16772       3.13642907    
   5.00000000       0.00000000      -7.00000000       2400.16772       3.13642907    
   4.91481400      0.647047520      -6.00000000       2934.87842       3.12302971    
   4.91481400      0.647047520      -5.00000000       2934.87842       3.12302971    
   5.00000000       0.00000000      -5.00000000       2934.87842       3.12302971    
   5.00000000       0.00000000      -6.00000000       2934.87842       3.12302971    
   4.91481400      0.647047520      -5.00000000       3577.14526       3.11520171    
   4.91481400      0.647047520      -4.00000000       3577.14526       3.11520171    
   5.00000000       0.00000000      -4.00000000       3577.14526       3.11520171    
   5.00000000       0.00000000      -5.00000000       3577.14526       3.11520171    
   4.91481400      0.647047520      -4.00000000       4351.47559       3.11068344    
   4.91481400      0.647047520      -3.00000000       4351.47559       3.11068344    
   5.00000000       0.00000000      -3.00000000       4351.47559       3.11068344    
   5.00000000       0.00000000      -4.00000000       4351.47559       3.11068344    
   4.91481400      0.647047520      -3.00000000       5285.86084       3.10848713    
   4.91481400      0.647047520      -2.00000000       5285.86084       3.10848713    
   5.00000000       0.00000000      -2.00000000       5285.86084       3.10848713    
   5.00000000       0.00000000      -3.00000000       5285.86084       3.10848713    
   4.91481400      0.647047520      -2.00000000       6414.70801       3.10780430    
   4.91481400      0.647047520      -1.00000000       6414.70801       3.10780430    
   5.00000000       0.00000000      -1.00000000       6414.70801       3.10780430    
   5.00000000       0.00000000      -2.00000000       6414.70801       3.10780430    
   4.91481400      0.647047520      -1.00000000       7771.88770       3.10857534    
   4.91481400      0.647047520       0.00000000       7771.88770       3.10857534    
   5.00000000       0.00000000       0.00000000       7771.88770       3.10857534    
   5.00000000       0.00000000      -1.00000000       7771.88770       3.10857534    
   4.33012676       2.50000000      -10.0000000       1059.97791      -2.95604062    
   4.33012676       2.50000000      -9.00000000       1059.97791      -2.95604062    
   4.57987785       1.89704800      -9.00000000       1059.97791      -2.95604062    
   4.57987785       1.89704800      -10.0000000       1059.97791      -2.95604062    
   4.33012676       2.50000000      -9.00000000       1334.80615      -3.07410192    
   4.33012676       2.50000000      -8.00000000       1334.80615      -3.07410192    
   4.57987785       1.89704800      -8.00000000       1334.80615      -3.07410192    
   4.57987785       1.89704800      -9.00000000       1334.80615      -3.07410192    
   4.33012676       2.50000000      -8.00000000       1651.79846      -3.12318039    
   4.33012676       2.50000000      -7.00000000       1651.79846      -3.12318039    
   4.57987785       1.89704800      -7.00000000       1651.79846      -3.12318039    
   4.57987785       1.89704800      -8.00000000       1651.79846      -3.12318039    
   4.33012676       2.50000000      -7.00000000       2026.59021       3.13404322    
   4.33012676       2.50000000      -6.00000000       2026.59021       3.13404322    
   4.57987785       1.89704800      -6.00000000       2026.59021       3.13404322    
   4.57987785       1.89704800      -7.00000000       2026.59021       3.13404322    
   4.33012676       2.50000000      -6.00000000       2475.05103       3.11952162    
   4.33012676       2.50000000      -5.00000000       2475.05103       3.11952162    
   4.57987785       1.89704800      -5.00000000       2475.05103       3.11952162    
   4.57987785       1.89704800      -6.00000000       2475.05103       3.11952162    
   4.33012676       2.50000000      -5.00000000       3014.79980       3.11107779    
   4.33012676       2.50000000      -4.00000000       3014.79980       3.11107779    
   4.57987785       1.89704800      -4.00000000       3014.79980       3.11107779    
   4.57987785       1.89704800      -5.00000000       3014.79980       3.11107779    
   4.33012676       2.50000000      -4.00000000       3666.19873       3.10624456    
   4.33012676       2.50000000      -3.00000000       3666.19873       3.10624456    
   4.57987785       1.89704800      -3.00000000       3666.19873       3.10624456    
   4.57987785       1.89704800      -4.00000000       3666.19873       3.10624456    
   4.33012676       2.50000000      -3.00000000       4452.76953       3.10395813    
   4.33012676       2.50000000      -2.00000000       4452.76953       3.10395813    
   4.57987785       1.89704800      -2.00000000       4452.76953       3.10395813    
   4.57987785       1.89704800      -3.00000000       4452.76953       3.10395813    
   4.33012676       2.50000000      -2.00000000       5403.48877       3.10333514    
   4.33012676       2.50000000      -1.00000000       5403.48877       3.10333514    
   4.57987785       1.89704800      -1.00000000       5403.48877       3.10333514    
   4.57987785       1.89704800      -2.00000000       5403.48877       3.10333514    
   4.33012676       2.50000000      -1.00000000       6547.00977       3.10445261    
   4.33012676       2.50000000       0.00000000       6547.00977       3.10445261    
   4.57987785       1.89704800       0.00000000       6547.00977       3.10445261    
   4.57987785       1.89704800      -1.00000000       6547.00977       3.10445261    
   4.57987785       1.89704800      -10.0000000       1135.55261      -2.96200585    
   4.57987785       1.89704800      -9.00000000       1135.55261      -2.96200585    
   4.82962894       1.29409504      -9.00000000       1135.55261      -2.96200585    
   4.82962894       1.29409504      -10.0000000       1135.55261      -2.96200585    
   4.57987785       1.89704800      -9.00000000       1443.06506      -3.07596469    
   4.57987785       1.89704800      -8.00000000       1443.06506      -3.07596469    
   4.82962894       1.29409504      -8.00000000       1443.06506      -3.07596469    
   4.82962894       1.29409504      -9.00000000       1443.06506      -3.07596469    
   4.57987785       1.89704800      -8.00000000       1791.14307      -3.12309361    
   4.57987785       1.89704800      -7.00000000       1791.14307      -3.12309361    
   4.82962894       1.29409504      -7.00000000       1791.14307      -3.12309361    
   4.82962894       1.29409504      -8.00000000       1791.14307      -3.12309361    
   4.57987785       1.89704800      -7.00000000       2200.44824       3.13514972    
   4.57987785       1.89704800      -6.00000000       2200.44824       3.13514972    
   4.82962894       1.29409504      -6.00000000       2200.44824       3.13514972    
   4.82962894       1.29409504      -7.00000000       2200.44824       3.13514972    
   4.57987785       1.89704800      -6.00000000       2689.09106       3.12116838    
   4.57987785       1.89704800      -5.00000000       2689.09106       3.12116838    
   4.82962894       1.29409504      -5.00000000       2689.09106       3.12116838    
   4.82962894       1.29409504      -6.00000000       2689.09106       3.12116838    
   4.57987785       1.89704800      -5.00000000       3276.57764       3.11302233    
   4.57987785       1.89704800      -4.00000000       3276.57764       3.11302233    
   4.82962894       1.29409504      -4.00000000       3276.57764       3.11302233    
   4.82962894       1.29409504      -5.00000000       3276.57764       3.11302233    
   4.57987785       1.89704800      -4.00000000       3985.20093       3.10834193    
   4.57987785       1.89704800      -3.00000000       3985.20093       3.10834193    
   4.82962894       1.29409504      -3.00000000       3985.20093       3.10834193    
   4.82962894       1.29409504      -4.00000000       3985.20093       3.10834193    
   4.57987785       1.89704800      -3.00000000       4840.59570       3.10609627    
   4.57987785       1.89704800      -2.00000000       4840.59570       3.10609627    
   4.82962894       1.29409504      -2.00000000       4840.59570       3.10609627    
   4.82962894       1.29409504      -3.00000000       4840.59570       3.10609627    
   4.57987785       1.89704800      -2.00000000       5874.23926       3.10544300    
   4.57987785       1.89704800      -1.00000000       5874.23926       3.10544300    
   4.82962894       1.29409504      -1.00000000       5874.23926       3.10544300    
   4.82962894       1.29409504      -2.00000000       5874.23926       3.10544300    
   4.57987785       1.89704800      -1.00000000       7117.46484       3.10637808    
   4.57987785       1.89704800       0.00000000       7117.46484       3.10637808    
   4.82962894       1.29409504       0.00000000       7117.46484       3.10637808    
   4.82962894       1.29409504      -1.00000000       7117.46484       3.10637808    
   3.53553391       3.53553391      -10.0000000       841.772339      -2.90947056    
   3.53553391       3.53553391      -9.00000000       841.772339      -2.90947056    
   3.93283010       3.01776695      -9.00000000       841.772339      -2.90947056    
   3.93283010       3.01776695      -10.0000000       841.772339      -2.90947056    
   3.53553391       3.53553391      -9.00000000       1018.99670      -3.03885555    
   3.53553391       3.53553391      -8.00000000       1018.99670      -3.03885555    
   3.93283010       3.01776695      -8.00000000       1018.99670      -3.03885555    
   3.93283010       3.01776695      -9.00000000       1018.99670      -3.03885555    
   3.53553391       3.53553391      -8.00000000       1244.12964      -3.09479761    
   3.53553391       3.53553391      -7.00000000       1244.12964      -3.09479761    
   3.93283010       3.01776695      -7.00000000       1244.12964      -3.09479761    
   3.93283010       3.01776695      -8.00000000       1244.12964      -3.09479761    
   3.53553391       3.53553391      -7.00000000       1517.16833      -3.12459803    
   3.53553391       3.53553391      -6.00000000       1517.16833      -3.12459803    
   3.93283010       3.01776695      -6.00000000       1517.16833      -3.12459803    
   3.93283010       3.01776695      -7.00000000       1517.16833      -3.12459803    
   3.53553391       3.53553391      -6.00000000       1847.37512      -3.14123702    
   3.53553391       3.53553391      -5.00000000       1847.37512      -3.14123702    
   3.93283010       3.01776695      -5.00000000       1847.37512      -3.14123702    
   3.93283010       3.01776695      -6.00000000       1847.37512      -3.14123702    
   3.53553391       3.53553391      -5.00000000       2246.69946       3.13231850    
   3.53553391       3.53553391      -4.00000000       2246.69946       3.13231850    
   3.93283010       3.01776695      -4.00000000       2246.69946       3.13231850    
   3.93283010       3.01776695      -5.00000000       2246.69946       3.13231850    
   3.53553391       3.53553391      -4.00000000       2729.84009       3.12686968    
   3.53553391       3.53553391      -3.00000000       2729.84009       3.12686968    
   3.93283010       3.01776695      -3.00000000       2729.84009       3.12686968    
   3.93283010       3.01776695      -4.00000000       2729.84009       3.12686968    
   3.53553391       3.53553391      -3.00000000       3314.24121       3.12440634    
   3.53553391       3.53553391      -2.00000000       3314.24121       3.12440634    
   3.93283010       3.01776695      -2.00000000       3314.24121       3.12440634    
   3.93283010       3.01776695      -3.00000000       3314.24121       3.12440634    
   3.53553391       3.53553391      -2.00000000       4021.45581       3.12390304    
   3.53553391       3.53553391      -1.00000000       4021.45581       3.12390304    
   3.93283010       3.01776695      -1.00000000       4021.45581       3.12390304    
   3.93283010       3.01776695      -2.00000000       4021.45581       3.12390304    
   3.53553391       3.53553391      -1.00000000       4873.45801       3.12568903    
   3.53553391       3.53553391       0.00000000       4873.45801       3.12568903    
   3.93283010       3.01776695       0.00000000       4873.45801       3.12568903    
   3.93283010       3.01776695      -1.00000000       4873.45801       3.12568903    
   3.93283010       3.01776695      -10.0000000       951.528625      -2.93460202    
   3.93283010       3.01776695      -9.00000000       951.528625      -2.93460202    
   4.33012676       2.50000000      -9.00000000       951.528625      -2.93460202    
   4.33012676       2.50000000      -10.0000000       951.528625      -2.93460202    
   3.93283010       3.01776695      -9.00000000       1177.57690      -3.05864286    
   3.93283010       3.01776695      -8.00000000       1177.57690      -3.05864286    
   4.33012676       2.50000000      -8.00000000       1177.57690      -3.05864286    
   4.33012676       2.50000000      -9.00000000       1177.57690      -3.05864286    
   3.93283010       3.01776695      -8.00000000       1449.04993      -3.11110878    
   3.93283010       3.01776695      -7.00000000       1449.04993      -3.11110878    
   4.33012676       2.50000000      -7.00000000       1449.04993      -3.11110878    
   4.33012676       2.50000000      -8.00000000       1449.04993      -3.11110878    
   3.93283010       3.01776695      -7.00000000       1773.38196      -3.13890171    
   3.93283010       3.01776695      -6.00000000       1773.38196      -3.13890171    
   4.33012676       2.50000000      -6.00000000       1773.38196      -3.13890171    
   4.33012676       2.50000000      -7.00000000       1773.38196      -3.13890171    
   3.93283010       3.01776695      -6.00000000       2163.17554       3.12875986    
   3.93283010       3.01776695      -5.00000000       2163.17554       3.12875986    
   4.33012676       2.50000000      -5.00000000       2163.17554       3.12875986    
   4.33012676       2.50000000      -6.00000000       2163.17554       3.12875986    
   3.93283010       3.01776695      -5.00000000       2633.20679       3.11975980    
   3.93283010       3.01776695      -4.00000000       2633.20679       3.11975980    
   4.33012676       2.50000000      -4.00000000       2633.20679       3.11975980    
   4.33012676       2.50000000      -5.00000000       2633.20679       3.11975980    
   3.93283010       3.01776695      -4.00000000       3201.02319       3.11464047    
   3.93283010       3.01776695      -3.00000000       3201.02319       3.11464047    
   4.33012676       2.50000000      -3.00000000       3201.02319       3.11464047    
   4.33012676       2.50000000      -4.00000000       3201.02319       3.11464047    
   3.93283010       3.01776695      -3.00000000       3887.19238       3.11226249    
   3.93283010       3.01776695      -2.00000000       3887.19238       3.11226249    
   4.33012676       2.50000000      -2.00000000       3887.19238       3.11226249    
   4.33012676       2.50000000      -3.00000000       3887.19238       3.11226249    
   3.93283010       3.01776695      -2.00000000       4716.95312       3.11168981    
   3.93283010       3.01776695      -1.00000000       4716.95312       3.11168981    
   4.33012676       2.50000000      -1.00000000       4716.95312       3.11168981    
   4.33012676       2.50000000      -2.00000000       4716.95312       3.11168981    
   3.93283010       3.01776695      -1.00000000       5716.10986       3.11306882    
   3.93283010       3.01776695       0.00000000       5716.10986       3.11306882    
   4.33012676       2.50000000       0.00000000       5716.10986       3.11306882    
   4.33012676       2.50000000      -1.00000000       5716.10986       3.11306882    
   2.50000000       4.33012676      -10.0000000       591.741211      -2.75681639    
   2.50000000       4.33012676      -9.00000000       591.741211      -2.75681639    
   3.01776695       3.93283010      -9.00000000       591.741211      -2.75681639    
   3.01776695       3.93283010      -10.0000000       591.741211      -2.75681639    
   2.50000000       4.33012676      -9.00000000       651.393311      -2.87800884    
   2.50000000       4.33012676      -8.00000000       651.393311      -2.87800884    
   3.01776695       3.93283010      -8.00000000       651.393311      -2.87800884    
   3.01776695       3.93283010      -9.00000000       651.393311      -2.87800884    
   2.50000000       4.33012676      -8.00000000       765.171875      -2.93860745    
   2.50000000       4.33012676      -7.00000000       765.171875      -2.93860745    
   3.01776695       3.93283010      -7.00000000       765.171875      -2.93860745    
   3.01776695       3.93283010      -8.00000000       765.171875      -2.93860745    
   2.50000000       4.33012676      -7.00000000       915.521240      -2.97271442    
   2.50000000       4.33012676      -6.00000000       915.521240      -2.97271442    
   3.01776695       3.93283010      -6.00000000       915.521240      -2.97271442    
   3.01776695       3.93283010      -7.00000000       915.521240      -2.97271442    
   2.50000000       4.33012676      -6.00000000       1103.86548      -2.99219036    
   2.50000000       4.33012676      -5.00000000       1103.86548      -2.99219036    
   3.01776695       3.93283010      -5.00000000       1103.86548      -2.99219036    
   3.01776695       3.93283010      -6.00000000       1103.86548      -2.99219036    
   2.50000000       4.33012676      -5.00000000       1335.27686      -3.00354075    
   2.50000000       4.33012676      -4.00000000       1335.27686      -3.00354075    
   3.01776695       3.93283010      -4.00000000       1335.27686      -3.00354075    
   3.01776695       3.93283010      -5.00000000       1335.27686      -3.00354075    
   2.50000000       4.33012676      -4.00000000       1617.68005      -3.00988126    
   2.50000000       4.33012676      -3.00000000       1617.68005      -3.00988126    
   3.01776695       3.93283010      -3.00000000       1617.68005      -3.00988126    
   3.01776695       3.93283010      -4.00000000       1617.68005      -3.00988126    
   2.50000000       4.33012676      -3.00000000       1961.40686      -3.01249170    
   2.50000000       4.33012676      -2.00000000       1961.40686      -3.01249170    
   3.01776695       3.93283010      -2.00000000       1961.40686      -3.01249170    
   3.01776695       3.93283010      -3.00000000       1961.40686      -3.01249170    
   2.50000000       4.33012676      -2.00000000       2379.25708      -3.01261687    
   2.50000000       4.33012676      -1.00000000       2379.25708      -3.01261687    
   3.01776695       3.93283010      -1.00000000       2379.25708      -3.01261687    
   3.01776695       3.93283010      -2.00000000       2379.25708      -3.01261687    
   2.50000000       4.33012676      -1.00000000       2886.06152      -3.00936604    
   2.50000000       4.33012676       0.00000000       2886.06152      -3.00936604    
   3.01776695       3.93283010       0.00000000       2886.06152      -3.00936604    
   3.01776695       3.93283010      -1.00000000       2886.06152      -3.00936604    
   3.01776695       3.93283010      -10.0000000       708.980164      -2.84242511    
   3.01776695       3.93283010      -9.00000000       708.980164      -2.84242511    
   3.53553391       3.53553391      -9.00000000       708.980164      -2.84242511    
   3.53553391       3.53553391      -10.0000000       708.980164      -2.84242511    
   3.01776695       3.93283010      -9.00000000       823.337463      -2.97359896    
   3.01776695       3.93283010      -8.00000000       823.337463      -2.97359896    
   3.53553391       3.53553391      -8.00000000       823.337463      -2.97359896    
   3.53553391       3.53553391      -9.00000000       823.337463      -2.97359896    
   3.01776695       3.93283010      -8.00000000       989.760071      -3.03384781    
   3.01776695       3.93283010      -7.00000000       989.760071      -3.03384781    
   3.53553391       3.53553391      -7.00000000       989.760071      -3.03384781    
   3.53553391       3.53553391      -8.00000000       989.760071      -3.03384781    
   3.01776695       3.93283010      -7.00000000       1198.10388      -3.06652975    
   3.01776695       3.93283010      -6.00000000       1198.10388      -3.06652975    
   3.53553391       3.53553391      -6.00000000       1198.10388      -3.06652975    
   3.53553391       3.53553391      -7.00000000       1198.10388      -3.06652975    
   3.01776695       3.93283010      -6.00000000       1453.42981      -3.08489704    
   3.01776695       3.93283010      -5.00000000       1453.42981      -3.08489704    
   3.53553391       3.53553391      -5.00000000       1453.42981      -3.08489704    
   3.53553391       3.53553391      -6.00000000       1453.42981      -3.08489704    
   3.01776695       3.93283010      -5.00000000       1764.02136      -3.09552860    
   3.01776695       3.93283010      -4.00000000       1764.02136      -3.09552860    
   3.53553391       3.53553391      -4.00000000       1764.02136      -3.09552860    
   3.53553391       3.53553391      -5.00000000       1764.02136      -3.09552860    
   3.01776695       3.93283010      -4.00000000       2140.97290      -3.10149121    
   3.01776695       3.93283010      -3.00000000       2140.97290      -3.10149121    
   3.53553391       3.53553391      -3.00000000       2140.97290      -3.10149121    
   3.53553391       3.53553391      -4.00000000       2140.97290      -3.10149121    
   3.01776695       3.93283010      -3.00000000       2598.02246      -3.10409713    
   3.01776695       3.93283010      -2.00000000       2598.02246      -3.10409713    
   3.53553391       3.53553391      -2.00000000       2598.02246      -3.10409713    
   3.53553391       3.53553391      -3.00000000       2598.02246      -3.10409713    
   3.01776695       3.93283010      -2.00000000       3152.03101      -3.10446477    
   3.01776695       3.93283010      -1.00000000       3152.03101      -3.10446477    
   3.53553391       3.53553391      -1.00000000       3152.03101      -3.10446477    
   3.53553391       3.53553391      -2.00000000       3152.03101      -3.10446477    
   3.01776695       3.93283010      -1.00000000       3821.60571      -3.10213494    
   3.01776695       3.93283010       0.00000000       3821.60571      -3.10213494    
   3.53553391       3.53553391       0.00000000       3821.60571      -3.10213494    
   3.53553391       3.53553391      -1.00000000       3821.60571      -3.10213494    
   1.29409504       4.82962894      -10.0000000       405.179047      -2.32876039    
   1.29409504       4.82962894      -9.00000000       405.179047      -2.32876039    
   1.89704800       4.57987785      -9.00000000       405.179047      -2.32876039    
   1.89704800       4.57987785      -10.0000000       405.179047      -2.32876039    
   1.29409504       4.82962894      -9.00000000       392.613708      -2.25891733    
   1.29409504       4.82962894      -8.00000000       392.613708      -2.25891733    
   1.89704800       4.57987785      -8.00000000       392.613708      -2.25891733    
   1.89704800       4.57987785      -9.00000000       392.613708      -2.25891733    
   1.29409504       4.82962894      -8.00000000       430.810638      -2.23137259    
   1.29409504       4.82962894      -7.00000000       430.810638      -2.23137259    
   1.89704800       4.57987785      -7.00000000       430.810638      -2.23137259    
   1.89704800       4.57987785      -8.00000000       430.810638      -2.23137259    
   1.29409504       4.82962894      -7.00000000       495.480103      -2.21858168    
   1.29409504       4.82962894      -6.00000000       495.480103      -2.21858168    
   1.89704800       4.57987785      -6.00000000       495.480103      -2.21858168    
   1.89704800       4.57987785      -7.00000000       495.480103      -2.21858168    
   1.29409504       4.82962894      -6.00000000       584.042419      -2.21254683    
   1.29409504       4.82962894      -5.00000000       584.042419      -2.21254683    
   1.89704800       4.57987785      -5.00000000       584.042419      -2.21254683    
   1.89704800       4.57987785      -6.00000000       584.042419      -2.21254683    
   1.29409504       4.82962894      -5.00000000       697.284424      -2.20944118    
   1.29409504       4.82962894      -4.00000000       697.284424      -2.20944118    
   1.89704800       4.57987785      -4.00000000       697.284424      -2.20944118    
   1.89704800       4.57987785      -5.00000000       697.284424      -2.20944118    
   1.29409504       4.82962894      -4.00000000       838.740601      -2.20754695    
   1.29409504       4.82962894      -3.00000000       838.740601      -2.20754695    
   1.89704800       4.57987785      -3.00000000       838.740601      -2.20754695    