 VARIABLES="X" "Y" "Z" "abs(p) (Pa)" "angle(p) (rad)"
ZONE N=   1080,E =     600, F=FEPOINT, ET=QUADRILATERAL
   4.82962894       1.29409504      -10.0000000       5172.88477     -0.232754081    
   4.82962894       1.29409504      -9.00000000       5172.88477     -0.232754081    
   4.91481400      0.647047520      -9.00000000       5172.88477     -0.232754081    
   4.91481400      0.647047520      -10.0000000       5172.88477     -0.232754081    
   4.82962894       1.29409504      -9.00000000       6793.80615     -0.263209522    
   4.82962894       1.29409504      -8.00000000       6793.80615     -0.263209522    
   4.91481400      0.647047520      -8.00000000       6793.80615     -0.263209522    
   4.91481400      0.647047520      -9.00000000       6793.80615     -0.263209522    
   4.82962894       1.29409504      -8.00000000       9082.86816     -0.469957471    
   4.82962894       1.29409504      -7.00000000       9082.86816     -0.469957471    
   4.91481400      0.647047520      -7.00000000       9082.86816     -0.469957471    
   4.91481400      0.647047520      -8.00000000       9082.86816     -0.469957471    
   4.82962894       1.29409504      -7.00000000       12208.9805     -0.635999799    
   4.82962894       1.29409504      -6.00000000       12208.9805     -0.635999799    
   4.91481400      0.647047520      -6.00000000       12208.9805     -0.635999799    
   4.91481400      0.647047520      -7.00000000       12208.9805     -0.635999799    
   4.82962894       1.29409504      -6.00000000       16068.3076     -0.745060682    
   4.82962894       1.29409504      -5.00000000       16068.3076     -0.745060682    
   4.91481400      0.647047520      -5.00000000       16068.3076     -0.745060682    
   4.91481400      0.647047520      -6.00000000       16068.3076     -0.745060682    
   4.82962894       1.29409504      -5.00000000       20546.8555     -0.812068343    
   4.82962894       1.29409504      -4.00000000       20546.8555     -0.812068343    
   4.91481400      0.647047520      -4.00000000       20546.8555     -0.812068343    
   4.91481400      0.647047520      -5.00000000       20546.8555     -0.812068343    
   4.82962894       1.29409504      -4.00000000       25599.3359     -0.851290345    
   4.82962894       1.29409504      -3.00000000       25599.3359     -0.851290345    
   4.91481400      0.647047520      -3.00000000       25599.3359     -0.851290345    
   4.91481400      0.647047520      -4.00000000       25599.3359     -0.851290345    
   4.82962894       1.29409504      -3.00000000       31232.8613     -0.871858895    
   4.82962894       1.29409504      -2.00000000       31232.8613     -0.871858895    
   4.91481400      0.647047520      -2.00000000       31232.8613     -0.871858895    
   4.91481400      0.647047520      -3.00000000       31232.8613     -0.871858895    
   4.82962894       1.29409504      -2.00000000       37533.2539     -0.880277932    
   4.82962894       1.29409504      -1.00000000       37533.2539     -0.880277932    
   4.91481400      0.647047520      -1.00000000       37533.2539     -0.880277932    
   4.91481400      0.647047520      -2.00000000       37533.2539     -0.880277932    
   4.82962894       1.29409504      -1.00000000       44650.5039     -0.881341994    
   4.82962894       1.29409504       0.00000000       44650.5039     -0.881341994    
   4.91481400      0.647047520       0.00000000       44650.5039     -0.881341994    
   4.91481400      0.647047520      -1.00000000       44650.5039     -0.881341994    
   4.91481400      0.647047520      -10.0000000       5261.29785     -0.234440058    
   4.91481400      0.647047520      -9.00000000       5261.29785     -0.234440058    
   5.00000000       0.00000000      -9.00000000       5261.29785     -0.234440058    
   5.00000000       0.00000000      -10.0000000       5261.29785     -0.234440058    
   4.91481400      0.647047520      -9.00000000       6908.12695     -0.263918400    
   4.91481400      0.647047520      -8.00000000       6908.12695     -0.263918400    
   5.00000000       0.00000000      -8.00000000       6908.12695     -0.263918400    
   5.00000000       0.00000000      -9.00000000       6908.12695     -0.263918400    
   4.91481400      0.647047520      -8.00000000       9233.81641     -0.469938099    
   4.91481400      0.647047520      -7.00000000       9233.81641     -0.469938099    
   5.00000000       0.00000000      -7.00000000       9233.81641     -0.469938099    
   5.00000000       0.00000000      -8.00000000       9233.81641     -0.469938099    
   4.91481400      0.647047520      -7.00000000       12408.7109     -0.635643125    
   4.91481400      0.647047520      -6.00000000       12408.7109     -0.635643125    
   5.00000000       0.00000000      -6.00000000       12408.7109     -0.635643125    
   5.00000000       0.00000000      -7.00000000       12408.7109     -0.635643125    
   4.91481400      0.647047520      -6.00000000       16328.1025     -0.744571209    
   4.91481400      0.647047520      -5.00000000       16328.1025     -0.744571209    
   5.00000000       0.00000000      -5.00000000       16328.1025     -0.744571209    
   5.00000000       0.00000000      -6.00000000       16328.1025     -0.744571209    
   4.91481400      0.647047520      -5.00000000       20876.6992     -0.811533689    
   4.91481400      0.647047520      -4.00000000       20876.6992     -0.811533689    
   5.00000000       0.00000000      -4.00000000       20876.6992     -0.811533689    
   5.00000000       0.00000000      -5.00000000       20876.6992     -0.811533689    
   4.91481400      0.647047520      -4.00000000       26008.6230     -0.850741386    
   4.91481400      0.647047520      -3.00000000       26008.6230     -0.850741386    
   5.00000000       0.00000000      -3.00000000       26008.6230     -0.850741386    
   5.00000000       0.00000000      -4.00000000       26008.6230     -0.850741386    
   4.91481400      0.647047520      -3.00000000       31731.3926     -0.871310234    
   4.91481400      0.647047520      -2.00000000       31731.3926     -0.871310234    
   5.00000000       0.00000000      -2.00000000       31731.3926     -0.871310234    
   5.00000000       0.00000000      -3.00000000       31731.3926     -0.871310234    
   4.91481400      0.647047520      -2.00000000       38132.1953     -0.879735410    
   4.91481400      0.647047520      -1.00000000       38132.1953     -0.879735410    
   5.00000000       0.00000000      -1.00000000       38132.1953     -0.879735410    
   5.00000000       0.00000000      -2.00000000       38132.1953     -0.879735410    
   4.91481400      0.647047520      -1.00000000       45364.0859     -0.880814373    
   4.91481400      0.647047520       0.00000000       45364.0859     -0.880814373    
   5.00000000       0.00000000       0.00000000       45364.0859     -0.880814373    
   5.00000000       0.00000000      -1.00000000       45364.0859     -0.880814373    
   4.33012676       2.50000000      -10.0000000       4731.95850     -0.230877772    
   4.33012676       2.50000000      -9.00000000       4731.95850     -0.230877772    
   4.57987785       1.89704800      -9.00000000       4731.95850     -0.230877772    
   4.57987785       1.89704800      -10.0000000       4731.95850     -0.230877772    
   4.33012676       2.50000000      -9.00000000       6216.50293     -0.262422055    
   4.33012676       2.50000000      -8.00000000       6216.50293     -0.262422055    
   4.57987785       1.89704800      -8.00000000       6216.50293     -0.262422055    
   4.57987785       1.89704800      -9.00000000       6216.50293     -0.262422055    
   4.33012676       2.50000000      -8.00000000       8312.94141     -0.469979167    
   4.33012676       2.50000000      -7.00000000       8312.94141     -0.469979167    
   4.57987785       1.89704800      -7.00000000       8312.94141     -0.469979167    
   4.57987785       1.89704800      -8.00000000       8312.94141     -0.469979167    
   4.33012676       2.50000000      -7.00000000       11177.2285     -0.636395991    
   4.33012676       2.50000000      -6.00000000       11177.2285     -0.636395991    
   4.57987785       1.89704800      -6.00000000       11177.2285     -0.636395991    
   4.57987785       1.89704800      -7.00000000       11177.2285     -0.636395991    
   4.33012676       2.50000000      -6.00000000       14713.5000     -0.745603740    
   4.33012676       2.50000000      -5.00000000       14713.5000     -0.745603740    
   4.57987785       1.89704800      -5.00000000       14713.5000     -0.745603740    
   4.57987785       1.89704800      -6.00000000       14713.5000     -0.745603740    
   4.33012676       2.50000000      -5.00000000       18816.7812     -0.812661111    
   4.33012676       2.50000000      -4.00000000       18816.7812     -0.812661111    
   4.57987785       1.89704800      -4.00000000       18816.7812     -0.812661111    
   4.57987785       1.89704800      -5.00000000       18816.7812     -0.812661111    
   4.33012676       2.50000000      -4.00000000       23445.4961     -0.851899564    
   4.33012676       2.50000000      -3.00000000       23445.4961     -0.851899564    
   4.57987785       1.89704800      -3.00000000       23445.4961     -0.851899564    
   4.57987785       1.89704800      -4.00000000       23445.4961     -0.851899564    
   4.33012676       2.50000000      -3.00000000       28605.8652     -0.872468054    
   4.33012676       2.50000000      -2.00000000       28605.8652     -0.872468054    
   4.57987785       1.89704800      -2.00000000       28605.8652     -0.872468054    
   4.57987785       1.89704800      -3.00000000       28605.8652     -0.872468054    
   4.33012676       2.50000000      -2.00000000       34376.4883     -0.880879700    
   4.33012676       2.50000000      -1.00000000       34376.4883     -0.880879700    
   4.57987785       1.89704800      -1.00000000       34376.4883     -0.880879700    
   4.57987785       1.89704800      -2.00000000       34376.4883     -0.880879700    
   4.33012676       2.50000000      -1.00000000       40894.1055     -0.881927848    
   4.33012676       2.50000000       0.00000000       40894.1055     -0.881927848    
   4.57987785       1.89704800       0.00000000       40894.1055     -0.881927848    
   4.57987785       1.89704800      -1.00000000       40894.1055     -0.881927848    
   4.57987785       1.89704800      -10.0000000       4991.17871     -0.236187592    
   4.57987785       1.89704800      -9.00000000       4991.17871     -0.236187592    
   4.82962894       1.29409504      -9.00000000       4991.17871     -0.236187592    
   4.82962894       1.29409504      -10.0000000       4991.17871     -0.236187592    
   4.57987785       1.89704800      -9.00000000       6551.67090     -0.264652342    
   4.57987785       1.89704800      -8.00000000       6551.67090     -0.264652342    
   4.82962894       1.29409504      -8.00000000       6551.67090     -0.264652342    
   4.82962894       1.29409504      -9.00000000       6551.67090     -0.264652342    
   4.57987785       1.89704800      -8.00000000       8755.49219     -0.469917893    
   4.57987785       1.89704800      -7.00000000       8755.49219     -0.469917893    
   4.82962894       1.29409504      -7.00000000       8755.49219     -0.469917893    
   4.82962894       1.29409504      -8.00000000       8755.49219     -0.469917893    
   4.57987785       1.89704800      -7.00000000       11762.8125     -0.635273218    
   4.57987785       1.89704800      -6.00000000       11762.8125     -0.635273218    
   4.82962894       1.29409504      -6.00000000       11762.8125     -0.635273218    
   4.82962894       1.29409504      -7.00000000       11762.8125     -0.635273218    
   4.57987785       1.89704800      -6.00000000       15475.1582     -0.744063437    
   4.57987785       1.89704800      -5.00000000       15475.1582     -0.744063437    
   4.82962894       1.29409504      -5.00000000       15475.1582     -0.744063437    
   4.82962894       1.29409504      -6.00000000       15475.1582     -0.744063437    
   4.57987785       1.89704800      -5.00000000       19783.8184     -0.810979068    
   4.57987785       1.89704800      -4.00000000       19783.8184     -0.810979068    
   4.82962894       1.29409504      -4.00000000       19783.8184     -0.810979068    
   4.82962894       1.29409504      -5.00000000       19783.8184     -0.810979068    
   4.57987785       1.89704800      -4.00000000       24645.4766     -0.850171149    
   4.57987785       1.89704800      -3.00000000       24645.4766     -0.850171149    
   4.82962894       1.29409504      -3.00000000       24645.4766     -0.850171149    
   4.82962894       1.29409504      -4.00000000       24645.4766     -0.850171149    
   4.57987785       1.89704800      -3.00000000       30067.4922     -0.870740294    
   4.57987785       1.89704800      -2.00000000       30067.4922     -0.870740294    
   4.82962894       1.29409504      -2.00000000       30067.4922     -0.870740294    
   4.82962894       1.29409504      -3.00000000       30067.4922     -0.870740294    
   4.57987785       1.89704800      -2.00000000       36132.5273     -0.879171789    
   4.57987785       1.89704800      -1.00000000       36132.5273     -0.879171789    
   4.82962894       1.29409504      -1.00000000       36132.5273     -0.879171789    
   4.82962894       1.29409504      -2.00000000       36132.5273     -0.879171789    
   4.57987785       1.89704800      -1.00000000       42986.1914     -0.880266368    
   4.57987785       1.89704800       0.00000000       42986.1914     -0.880266368    
   4.82962894       1.29409504       0.00000000       42986.1914     -0.880266368    
   4.82962894       1.29409504      -1.00000000       42986.1914     -0.880266368    
   3.53553391       3.53553391      -10.0000000       3968.57935     -0.228433177    
   3.53553391       3.53553391      -9.00000000       3968.57935     -0.228433177    
   3.93283010       3.01776695      -9.00000000       3968.57935     -0.228433177    
   3.93283010       3.01776695      -10.0000000       3968.57935     -0.228433177    
   3.53553391       3.53553391      -9.00000000       5215.56250     -0.261395872    
   3.53553391       3.53553391      -8.00000000       5215.56250     -0.261395872    
   3.93283010       3.01776695      -8.00000000       5215.56250     -0.261395872    
   3.93283010       3.01776695      -9.00000000       5215.56250     -0.261395872    
   3.53553391       3.53553391      -8.00000000       6976.49561     -0.470007449    
   3.53553391       3.53553391      -7.00000000       6976.49561     -0.470007449    
   3.93283010       3.01776695      -7.00000000       6976.49561     -0.470007449    
   3.93283010       3.01776695      -8.00000000       6976.49561     -0.470007449    
   3.53553391       3.53553391      -7.00000000       9383.77637     -0.636910737    
   3.53553391       3.53553391      -6.00000000       9383.77637     -0.636910737    
   3.93283010       3.01776695      -6.00000000       9383.77637     -0.636910737    
   3.93283010       3.01776695      -7.00000000       9383.77637     -0.636910737    
   3.53553391       3.53553391      -6.00000000       12355.9932     -0.746309578    
   3.53553391       3.53553391      -5.00000000       12355.9932     -0.746309578    
   3.93283010       3.01776695      -5.00000000       12355.9932     -0.746309578    
   3.93283010       3.01776695      -6.00000000       12355.9932     -0.746309578    
   3.53553391       3.53553391      -5.00000000       15804.3936     -0.813432038    
   3.53553391       3.53553391      -4.00000000       15804.3936     -0.813432038    
   3.93283010       3.01776695      -4.00000000       15804.3936     -0.813432038    
   3.93283010       3.01776695      -5.00000000       15804.3936     -0.813432038    
   3.53553391       3.53553391      -4.00000000       19693.9336     -0.852690637    
   3.53553391       3.53553391      -3.00000000       19693.9336     -0.852690637    
   3.93283010       3.01776695      -3.00000000       19693.9336     -0.852690637    
   3.93283010       3.01776695      -4.00000000       19693.9336     -0.852690637    
   3.53553391       3.53553391      -3.00000000       24029.4609     -0.873259127    
   3.53553391       3.53553391      -2.00000000       24029.4609     -0.873259127    
   3.93283010       3.01776695      -2.00000000       24029.4609     -0.873259127    
   3.93283010       3.01776695      -3.00000000       24029.4609     -0.873259127    
   3.53553391       3.53553391      -2.00000000       28877.0449     -0.881662309    
   3.53553391       3.53553391      -1.00000000       28877.0449     -0.881662309    
   3.93283010       3.01776695      -1.00000000       28877.0449     -0.881662309    
   3.93283010       3.01776695      -2.00000000       28877.0449     -0.881662309    
   3.53553391       3.53553391      -1.00000000       34350.8164     -0.882689178    
   3.53553391       3.53553391       0.00000000       34350.8164     -0.882689178    
   3.93283010       3.01776695       0.00000000       34350.8164     -0.882689178    
   3.93283010       3.01776695      -1.00000000       34350.8164     -0.882689178    
   3.93283010       3.01776695      -10.0000000       4380.94092     -0.238288358    
   3.93283010       3.01776695      -9.00000000       4380.94092     -0.238288358    
   4.33012676       2.50000000      -9.00000000       4380.94092     -0.238288358    
   4.33012676       2.50000000      -10.0000000       4380.94092     -0.238288358    
   3.93283010       3.01776695      -9.00000000       5748.73584     -0.265535086    
   3.93283010       3.01776695      -8.00000000       5748.73584     -0.265535086    
   4.33012676       2.50000000      -8.00000000       5748.73584     -0.265535086    
   4.33012676       2.50000000      -9.00000000       5748.73584     -0.265535086    
   3.93283010       3.01776695      -8.00000000       7680.49756     -0.469893783    
   3.93283010       3.01776695      -7.00000000       7680.49756     -0.469893783    
   4.33012676       2.50000000      -7.00000000       7680.49756     -0.469893783    
   4.33012676       2.50000000      -8.00000000       7680.49756     -0.469893783    
   3.93283010       3.01776695      -7.00000000       10315.2969     -0.634827733    
   3.93283010       3.01776695      -6.00000000       10315.2969     -0.634827733    
   4.33012676       2.50000000      -6.00000000       10315.2969     -0.634827733    
   4.33012676       2.50000000      -7.00000000       10315.2969     -0.634827733    
   3.93283010       3.01776695      -6.00000000       13567.6162     -0.743452191    
   3.93283010       3.01776695      -5.00000000       13567.6162     -0.743452191    
   4.33012676       2.50000000      -5.00000000       13567.6162     -0.743452191    
   4.33012676       2.50000000      -6.00000000       13567.6162     -0.743452191    
   3.93283010       3.01776695      -5.00000000       17342.7402     -0.810311198    
   3.93283010       3.01776695      -4.00000000       17342.7402     -0.810311198    
   4.33012676       2.50000000      -4.00000000       17342.7402     -0.810311198    
   4.33012676       2.50000000      -5.00000000       17342.7402     -0.810311198    
   3.93283010       3.01776695      -4.00000000       21602.7891     -0.849484563    
   3.93283010       3.01776695      -3.00000000       21602.7891     -0.849484563    
   4.33012676       2.50000000      -3.00000000       21602.7891     -0.849484563    
   4.33012676       2.50000000      -4.00000000       21602.7891     -0.849484563    
   3.93283010       3.01776695      -3.00000000       26354.5625     -0.870053947    
   3.93283010       3.01776695      -2.00000000       26354.5625     -0.870053947    
   4.33012676       2.50000000      -2.00000000       26354.5625     -0.870053947    
   4.33012676       2.50000000      -3.00000000       26354.5625     -0.870053947    
   3.93283010       3.01776695      -2.00000000       31670.4746     -0.878493845    
   3.93283010       3.01776695      -1.00000000       31670.4746     -0.878493845    
   4.33012676       2.50000000      -1.00000000       31670.4746     -0.878493845    
   4.33012676       2.50000000      -2.00000000       31670.4746     -0.878493845    
   3.93283010       3.01776695      -1.00000000       37678.8711     -0.879605889    
   3.93283010       3.01776695       0.00000000       37678.8711     -0.879605889    
   4.33012676       2.50000000       0.00000000       37678.8711     -0.879605889    
   4.33012676       2.50000000      -1.00000000       37678.8711     -0.879605889    
   2.50000000       4.33012676      -10.0000000       2934.79004     -0.224490494    
   2.50000000       4.33012676      -9.00000000       2934.79004     -0.224490494    
   3.01776695       3.93283010      -9.00000000       2934.79004     -0.224490494    
   3.01776695       3.93283010      -10.0000000       2934.79004     -0.224490494    
   2.50000000       4.33012676      -9.00000000       3859.19360     -0.259744972    
   2.50000000       4.33012676      -8.00000000       3859.19360     -0.259744972    
   3.01776695       3.93283010      -8.00000000       3859.19360     -0.259744972    
   3.01776695       3.93283010      -9.00000000       3859.19360     -0.259744972    
   2.50000000       4.33012676      -8.00000000       5164.62012     -0.470052242    
   2.50000000       4.33012676      -7.00000000       5164.62012     -0.470052242    
   3.01776695       3.93283010      -7.00000000       5164.62012     -0.470052242    
   3.01776695       3.93283010      -8.00000000       5164.62012     -0.470052242    
   2.50000000       4.33012676      -7.00000000       6950.83545     -0.637738824    
   2.50000000       4.33012676      -6.00000000       6950.83545     -0.637738824    
   3.01776695       3.93283010      -6.00000000       6950.83545     -0.637738824    
   3.01776695       3.93283010      -7.00000000       6950.83545     -0.637738824    
   2.50000000       4.33012676      -6.00000000       9156.45020     -0.747444868    
   2.50000000       4.33012676      -5.00000000       9156.45020     -0.747444868    
   3.01776695       3.93283010      -5.00000000       9156.45020     -0.747444868    
   3.01776695       3.93283010      -6.00000000       9156.45020     -0.747444868    
   2.50000000       4.33012676      -5.00000000       11714.9697     -0.814669967    
   2.50000000       4.33012676      -4.00000000       11714.9697     -0.814669967    
   3.01776695       3.93283010      -4.00000000       11714.9697     -0.814669967    
   3.01776695       3.93283010      -5.00000000       11714.9697     -0.814669967    
   2.50000000       4.33012676      -4.00000000       14600.2432     -0.853962481    
   2.50000000       4.33012676      -3.00000000       14600.2432     -0.853962481    
   3.01776695       3.93283010      -3.00000000       14600.2432     -0.853962481    
   3.01776695       3.93283010      -4.00000000       14600.2432     -0.853962481    
   2.50000000       4.33012676      -3.00000000       17815.4980     -0.874529541    
   2.50000000       4.33012676      -2.00000000       17815.4980     -0.874529541    
   3.01776695       3.93283010      -2.00000000       17815.4980     -0.874529541    
   3.01776695       3.93283010      -3.00000000       17815.4980     -0.874529541    
   2.50000000       4.33012676      -2.00000000       21409.6934     -0.882918060    
   2.50000000       4.33012676      -1.00000000       21409.6934     -0.882918060    
   3.01776695       3.93283010      -1.00000000       21409.6934     -0.882918060    
   3.01776695       3.93283010      -2.00000000       21409.6934     -0.882918060    
   2.50000000       4.33012676      -1.00000000       25466.6328     -0.883911490    
   2.50000000       4.33012676       0.00000000       25466.6328     -0.883911490    
   3.01776695       3.93283010       0.00000000       25466.6328     -0.883911490    
   3.01776695       3.93283010      -1.00000000       25466.6328     -0.883911490    
   3.01776695       3.93283010      -10.0000000       3472.16968     -0.241305888    
   3.01776695       3.93283010      -9.00000000       3472.16968     -0.241305888    
   3.53553391       3.53553391      -9.00000000       3472.16968     -0.241305888    
   3.53553391       3.53553391      -10.0000000       3472.16968     -0.241305888    
   3.01776695       3.93283010      -9.00000000       4554.03760     -0.266805142    
   3.01776695       3.93283010      -8.00000000       4554.03760     -0.266805142    
   3.53553391       3.53553391      -8.00000000       4554.03760     -0.266805142    
   3.53553391       3.53553391      -9.00000000       4554.03760     -0.266805142    
   3.01776695       3.93283010      -8.00000000       6082.09619     -0.469858617    
   3.01776695       3.93283010      -7.00000000       6082.09619     -0.469858617    
   3.53553391       3.53553391      -7.00000000       6082.09619     -0.469858617    
   3.53553391       3.53553391      -8.00000000       6082.09619     -0.469858617    
   3.01776695       3.93283010      -7.00000000       8164.81104     -0.634186447    
   3.01776695       3.93283010      -6.00000000       8164.81104     -0.634186447    
   3.53553391       3.53553391      -6.00000000       8164.81104     -0.634186447    
   3.53553391       3.53553391      -7.00000000       8164.81104     -0.634186447    
   3.01776695       3.93283010      -6.00000000       10735.4658     -0.742571175    
   3.01776695       3.93283010      -5.00000000       10735.4658     -0.742571175    
   3.53553391       3.53553391      -5.00000000       10735.4658     -0.742571175    
   3.53553391       3.53553391      -6.00000000       10735.4658     -0.742571175    
   3.01776695       3.93283010      -5.00000000       13719.7754     -0.809347630    
   3.01776695       3.93283010      -4.00000000       13719.7754     -0.809347630    
   3.53553391       3.53553391      -4.00000000       13719.7754     -0.809347630    
   3.53553391       3.53553391      -5.00000000       13719.7754     -0.809347630    
   3.01776695       3.93283010      -4.00000000       17087.9121     -0.848494530    
   3.01776695       3.93283010      -3.00000000       17087.9121     -0.848494530    
   3.53553391       3.53553391      -3.00000000       17087.9121     -0.848494530    
   3.53553391       3.53553391      -4.00000000       17087.9121     -0.848494530    
   3.01776695       3.93283010      -3.00000000       20845.6133     -0.869063973    
   3.01776695       3.93283010      -2.00000000       20845.6133     -0.869063973    
   3.53553391       3.53553391      -2.00000000       20845.6133     -0.869063973    
   3.53553391       3.53553391      -3.00000000       20845.6133     -0.869063973    
   3.01776695       3.93283010      -2.00000000       25050.1641     -0.877514660    
   3.01776695       3.93283010      -1.00000000       25050.1641     -0.877514660    
   3.53553391       3.53553391      -1.00000000       25050.1641     -0.877514660    
   3.53553391       3.53553391      -2.00000000       25050.1641     -0.877514660    
   3.01776695       3.93283010      -1.00000000       29803.8281     -0.878653824    
   3.01776695       3.93283010       0.00000000       29803.8281     -0.878653824    
   3.53553391       3.53553391       0.00000000       29803.8281     -0.878653824    
   3.53553391       3.53553391      -1.00000000       29803.8281     -0.878653824    
   1.29409504       4.82962894      -10.0000000       1701.09802     -0.215294823    
   1.29409504       4.82962894      -9.00000000       1701.09802     -0.215294823    
   1.89704800       4.57987785      -9.00000000       1701.09802     -0.215294823    
   1.89704800       4.57987785      -10.0000000       1701.09802     -0.215294823    
   1.29409504       4.82962894      -9.00000000       2239.85742     -0.255898774    
   1.29409504       4.82962894      -8.00000000       2239.85742     -0.255898774    
   1.89704800       4.57987785      -8.00000000       2239.85742     -0.255898774    
   1.89704800       4.57987785      -9.00000000       2239.85742     -0.255898774    
   1.29409504       4.82962894      -8.00000000       3000.77808     -0.470158488    
   1.29409504       4.82962894      -7.00000000       3000.77808     -0.470158488    
   1.89704800       4.57987785      -7.00000000       3000.77808     -0.470158488    
   1.89704800       4.57987785      -8.00000000       3000.77808     -0.470158488    
   1.29409504       4.82962894      -7.00000000       4044.21289     -0.639661014    
   1.29409504       4.82962894      -6.00000000       4044.21289     -0.639661014    
   1.89704800       4.57987785      -6.00000000       4044.21289     -0.639661014    
   1.89704800       4.57987785      -7.00000000       4044.21289     -0.639661014    
   1.29409504       4.82962894      -6.00000000       5332.93701     -0.750073731    
   1.29409504       4.82962894      -5.00000000       5332.93701     -0.750073731    
   1.89704800       4.57987785      -5.00000000       5332.93701     -0.750073731    
   1.89704800       4.57987785      -6.00000000       5332.93701     -0.750073731    
   1.29409504       4.82962894      -5.00000000       6827.23096     -0.817535877    
   1.29409504       4.82962894      -4.00000000       6827.23096     -0.817535877    
   1.89704800       4.57987785      -4.00000000       6827.23096     -0.817535877    
   1.89704800       4.57987785      -5.00000000       6827.23096     -0.817535877    
   1.29409504       4.82962894      -4.00000000       8511.62109     -0.856904328    
   1.29409504       4.82962894      -3.00000000       8511.62109     -0.856904328    
   1.89704800       4.57987785      -3.00000000       8511.62109     -0.856904328    