 VARIABLES="X" "Y" "Z" "abs(p) (Pa)" "angle(p) (rad)"
ZONE N=   1080,E =     600, F=FEPOINT, ET=QUADRILATERAL
   4.82962894       1.29409504      -10.0000000       650.737976       2.35782337    
   4.82962894       1.29409504      -9.00000000       650.737976       2.35782337    
   4.91481400      0.647047520      -9.00000000       650.737976       2.35782337    
   4.91481400      0.647047520      -10.0000000       650.737976       2.35782337    
   4.82962894       1.29409504      -9.00000000       760.239441       2.14851165    
   4.82962894       1.29409504      -8.00000000       760.239441       2.14851165    
   4.91481400      0.647047520      -8.00000000       760.239441       2.14851165    
   4.91481400      0.647047520      -9.00000000       760.239441       2.14851165    
   4.82962894       1.29409504      -8.00000000       848.575073       2.06278181    
   4.82962894       1.29409504      -7.00000000       848.575073       2.06278181    
   4.91481400      0.647047520      -7.00000000       848.575073       2.06278181    
   4.91481400      0.647047520      -8.00000000       848.575073       2.06278181    
   4.82962894       1.29409504      -7.00000000       922.262512       2.01511192    
   4.82962894       1.29409504      -6.00000000       922.262512       2.01511192    
   4.91481400      0.647047520      -6.00000000       922.262512       2.01511192    
   4.91481400      0.647047520      -7.00000000       922.262512       2.01511192    
   4.82962894       1.29409504      -6.00000000       986.206665       1.98547924    
   4.82962894       1.29409504      -5.00000000       986.206665       1.98547924    
   4.91481400      0.647047520      -5.00000000       986.206665       1.98547924    
   4.91481400      0.647047520      -6.00000000       986.206665       1.98547924    
   4.82962894       1.29409504      -5.00000000       1043.46423       1.96618533    
   4.82962894       1.29409504      -4.00000000       1043.46423       1.96618533    
   4.91481400      0.647047520      -4.00000000       1043.46423       1.96618533    
   4.91481400      0.647047520      -5.00000000       1043.46423       1.96618533    
   4.82962894       1.29409504      -4.00000000       1095.87329       1.95323539    
   4.82962894       1.29409504      -3.00000000       1095.87329       1.95323539    
   4.91481400      0.647047520      -3.00000000       1095.87329       1.95323539    
   4.91481400      0.647047520      -4.00000000       1095.87329       1.95323539    
   4.82962894       1.29409504      -3.00000000       1144.44983       1.94470048    
   4.82962894       1.29409504      -2.00000000       1144.44983       1.94470048    
   4.91481400      0.647047520      -2.00000000       1144.44983       1.94470048    
   4.91481400      0.647047520      -3.00000000       1144.44983       1.94470048    
   4.82962894       1.29409504      -2.00000000       1189.90295       1.93967259    
   4.82962894       1.29409504      -1.00000000       1189.90295       1.93967259    
   4.91481400      0.647047520      -1.00000000       1189.90295       1.93967259    
   4.91481400      0.647047520      -2.00000000       1189.90295       1.93967259    
   4.82962894       1.29409504      -1.00000000       1232.18628       1.93746507    
   4.82962894       1.29409504       0.00000000       1232.18628       1.93746507    
   4.91481400      0.647047520       0.00000000       1232.18628       1.93746507    
   4.91481400      0.647047520      -1.00000000       1232.18628       1.93746507    
   4.91481400      0.647047520      -10.0000000       659.172546       2.34947181    
   4.91481400      0.647047520      -9.00000000       659.172546       2.34947181    
   5.00000000       0.00000000      -9.00000000       659.172546       2.34947181    
   5.00000000       0.00000000      -10.0000000       659.172546       2.34947181    
   4.91481400      0.647047520      -9.00000000       772.452515       2.14240575    
   4.91481400      0.647047520      -8.00000000       772.452515       2.14240575    
   5.00000000       0.00000000      -8.00000000       772.452515       2.14240575    
   5.00000000       0.00000000      -9.00000000       772.452515       2.14240575    
   4.91481400      0.647047520      -8.00000000       863.007080       2.05787182    
   4.91481400      0.647047520      -7.00000000       863.007080       2.05787182    
   5.00000000       0.00000000      -7.00000000       863.007080       2.05787182    
   5.00000000       0.00000000      -8.00000000       863.007080       2.05787182    
   4.91481400      0.647047520      -7.00000000       938.332397       2.01090622    
   4.91481400      0.647047520      -6.00000000       938.332397       2.01090622    
   5.00000000       0.00000000      -6.00000000       938.332397       2.01090622    
   5.00000000       0.00000000      -7.00000000       938.332397       2.01090622    
   4.91481400      0.647047520      -6.00000000       1003.60803       1.98171735    
   4.91481400      0.647047520      -5.00000000       1003.60803       1.98171735    
   5.00000000       0.00000000      -5.00000000       1003.60803       1.98171735    
   5.00000000       0.00000000      -6.00000000       1003.60803       1.98171735    
   4.91481400      0.647047520      -5.00000000       1062.00684       1.96271265    
   4.91481400      0.647047520      -4.00000000       1062.00684       1.96271265    
   5.00000000       0.00000000      -4.00000000       1062.00684       1.96271265    
   5.00000000       0.00000000      -5.00000000       1062.00684       1.96271265    
   4.91481400      0.647047520      -4.00000000       1115.43091       1.94995522    
   4.91481400      0.647047520      -3.00000000       1115.43091       1.94995522    
   5.00000000       0.00000000      -3.00000000       1115.43091       1.94995522    
   5.00000000       0.00000000      -4.00000000       1115.43091       1.94995522    
   4.91481400      0.647047520      -3.00000000       1164.92896       1.94154692    
   4.91481400      0.647047520      -2.00000000       1164.92896       1.94154692    
   5.00000000       0.00000000      -2.00000000       1164.92896       1.94154692    
   5.00000000       0.00000000      -3.00000000       1164.92896       1.94154692    
   4.91481400      0.647047520      -2.00000000       1211.22839       1.93659234    
   4.91481400      0.647047520      -1.00000000       1211.22839       1.93659234    
   5.00000000       0.00000000      -1.00000000       1211.22839       1.93659234    
   5.00000000       0.00000000      -2.00000000       1211.22839       1.93659234    
   4.91481400      0.647047520      -1.00000000       1254.29846       1.93441284    
   4.91481400      0.647047520       0.00000000       1254.29846       1.93441284    
   5.00000000       0.00000000       0.00000000       1254.29846       1.93441284    
   5.00000000       0.00000000      -1.00000000       1254.29846       1.93441284    
   4.33012676       2.50000000      -10.0000000       605.954712       2.40840197    
   4.33012676       2.50000000      -9.00000000       605.954712       2.40840197    
   4.57987785       1.89704800      -9.00000000       605.954712       2.40840197    
   4.57987785       1.89704800      -10.0000000       605.954712       2.40840197    
   4.33012676       2.50000000      -9.00000000       695.083862       2.18636465    
   4.33012676       2.50000000      -8.00000000       695.083862       2.18636465    
   4.57987785       1.89704800      -8.00000000       695.083862       2.18636465    
   4.57987785       1.89704800      -9.00000000       695.083862       2.18636465    
   4.33012676       2.50000000      -8.00000000       771.654968       2.09348893    
   4.33012676       2.50000000      -7.00000000       771.654968       2.09348893    
   4.57987785       1.89704800      -7.00000000       771.654968       2.09348893    
   4.57987785       1.89704800      -8.00000000       771.654968       2.09348893    
   4.33012676       2.50000000      -7.00000000       836.687378       2.04156232    
   4.33012676       2.50000000      -6.00000000       836.687378       2.04156232    
   4.57987785       1.89704800      -6.00000000       836.687378       2.04156232    
   4.57987785       1.89704800      -7.00000000       836.687378       2.04156232    
   4.33012676       2.50000000      -6.00000000       893.609070       2.00923467    
   4.33012676       2.50000000      -5.00000000       893.609070       2.00923467    
   4.57987785       1.89704800      -5.00000000       893.609070       2.00923467    
   4.57987785       1.89704800      -6.00000000       893.609070       2.00923467    
   4.33012676       2.50000000      -5.00000000       944.846497       1.98817968    
   4.33012676       2.50000000      -4.00000000       944.846497       1.98817968    
   4.57987785       1.89704800      -4.00000000       944.846497       1.98817968    
   4.57987785       1.89704800      -5.00000000       944.846497       1.98817968    
   4.33012676       2.50000000      -4.00000000       991.890991       1.97405159    
   4.33012676       2.50000000      -3.00000000       991.890991       1.97405159    
   4.57987785       1.89704800      -3.00000000       991.890991       1.97405159    
   4.57987785       1.89704800      -4.00000000       991.890991       1.97405159    
   4.33012676       2.50000000      -3.00000000       1035.59058       1.96474493    
   4.33012676       2.50000000      -2.00000000       1035.59058       1.96474493    
   4.57987785       1.89704800      -2.00000000       1035.59058       1.96474493    
   4.57987785       1.89704800      -3.00000000       1035.59058       1.96474493    
   4.33012676       2.50000000      -2.00000000       1076.56482       1.95926607    
   4.33012676       2.50000000      -1.00000000       1076.56482       1.95926607    
   4.57987785       1.89704800      -1.00000000       1076.56482       1.95926607    
   4.57987785       1.89704800      -2.00000000       1076.56482       1.95926607    
   4.33012676       2.50000000      -1.00000000       1114.73071       1.95687652    
   4.33012676       2.50000000       0.00000000       1114.73071       1.95687652    
   4.57987785       1.89704800       0.00000000       1114.73071       1.95687652    
   4.57987785       1.89704800      -1.00000000       1114.73071       1.95687652    
   4.57987785       1.89704800      -10.0000000       629.789978       2.38037419    
   4.57987785       1.89704800      -9.00000000       629.789978       2.38037419    
   4.82962894       1.29409504      -9.00000000       629.789978       2.38037419    
   4.82962894       1.29409504      -10.0000000       629.789978       2.38037419    
   4.57987785       1.89704800      -9.00000000       730.258301       2.16498876    
   4.57987785       1.89704800      -8.00000000       730.258301       2.16498876    
   4.82962894       1.29409504      -8.00000000       730.258301       2.16498876    
   4.82962894       1.29409504      -9.00000000       730.258301       2.16498876    
   4.57987785       1.89704800      -8.00000000       813.467041       2.07599020    
   4.57987785       1.89704800      -7.00000000       813.467041       2.07599020    
   4.82962894       1.29409504      -7.00000000       813.467041       2.07599020    
   4.82962894       1.29409504      -8.00000000       813.467041       2.07599020    
   4.57987785       1.89704800      -7.00000000       883.373230       2.02641177    
   4.57987785       1.89704800      -6.00000000       883.373230       2.02641177    
   4.82962894       1.29409504      -6.00000000       883.373230       2.02641177    
   4.82962894       1.29409504      -7.00000000       883.373230       2.02641177    
   4.57987785       1.89704800      -6.00000000       944.241211       1.99558067    
   4.57987785       1.89704800      -5.00000000       944.241211       1.99558067    
   4.82962894       1.29409504      -5.00000000       944.241211       1.99558067    
   4.82962894       1.29409504      -6.00000000       944.241211       1.99558067    
   4.57987785       1.89704800      -5.00000000       998.845337       1.97550929    
   4.57987785       1.89704800      -4.00000000       998.845337       1.97550929    
   4.82962894       1.29409504      -4.00000000       998.845337       1.97550929    
   4.82962894       1.29409504      -5.00000000       998.845337       1.97550929    
   4.57987785       1.89704800      -4.00000000       1048.87927       1.96204042    
   4.57987785       1.89704800      -3.00000000       1048.87927       1.96204042    
   4.82962894       1.29409504      -3.00000000       1048.87927       1.96204042    
   4.82962894       1.29409504      -4.00000000       1048.87927       1.96204042    
   4.57987785       1.89704800      -3.00000000       1095.28931       1.95316553    
   4.57987785       1.89704800      -2.00000000       1095.28931       1.95316553    
   4.82962894       1.29409504      -2.00000000       1095.28931       1.95316553    
   4.82962894       1.29409504      -3.00000000       1095.28931       1.95316553    
   4.57987785       1.89704800      -2.00000000       1138.74231       1.94793975    
   4.57987785       1.89704800      -1.00000000       1138.74231       1.94793975    
   4.82962894       1.29409504      -1.00000000       1138.74231       1.94793975    
   4.82962894       1.29409504      -2.00000000       1138.74231       1.94793975    
   4.57987785       1.89704800      -1.00000000       1179.20862       1.94564593    
   4.57987785       1.89704800       0.00000000       1179.20862       1.94564593    
   4.82962894       1.29409504       0.00000000       1179.20862       1.94564593    
   4.82962894       1.29409504      -1.00000000       1179.20862       1.94564593    
   3.53553391       3.53553391      -10.0000000       533.623779       2.51933479    
   3.53553391       3.53553391      -9.00000000       533.623779       2.51933479    
   3.93283010       3.01776695      -9.00000000       533.623779       2.51933479    
   3.93283010       3.01776695      -10.0000000       533.623779       2.51933479    
   3.53553391       3.53553391      -9.00000000       585.742554       2.27630353    
   3.53553391       3.53553391      -8.00000000       585.742554       2.27630353    
   3.93283010       3.01776695      -8.00000000       585.742554       2.27630353    
   3.93283010       3.01776695      -9.00000000       585.742554       2.27630353    
   3.53553391       3.53553391      -8.00000000       640.952332       2.16885734    
   3.53553391       3.53553391      -7.00000000       640.952332       2.16885734    
   3.93283010       3.01776695      -7.00000000       640.952332       2.16885734    
   3.93283010       3.01776695      -8.00000000       640.952332       2.16885734    
   3.53553391       3.53553391      -7.00000000       690.416748       2.10771084    
   3.53553391       3.53553391      -6.00000000       690.416748       2.10771084    
   3.93283010       3.01776695      -6.00000000       690.416748       2.10771084    
   3.93283010       3.01776695      -7.00000000       690.416748       2.10771084    
   3.53553391       3.53553391      -6.00000000       734.820496       2.06937456    
   3.53553391       3.53553391      -5.00000000       734.820496       2.06937456    
   3.93283010       3.01776695      -5.00000000       734.820496       2.06937456    
   3.93283010       3.01776695      -6.00000000       734.820496       2.06937456    
   3.53553391       3.53553391      -5.00000000       775.401611       2.04432821    
   3.53553391       3.53553391      -4.00000000       775.401611       2.04432821    
   3.93283010       3.01776695      -4.00000000       775.401611       2.04432821    
   3.93283010       3.01776695      -5.00000000       775.401611       2.04432821    
   3.53553391       3.53553391      -4.00000000       813.010010       2.02750206    
   3.53553391       3.53553391      -3.00000000       813.010010       2.02750206    
   3.93283010       3.01776695      -3.00000000       813.010010       2.02750206    
   3.93283010       3.01776695      -4.00000000       813.010010       2.02750206    
   3.53553391       3.53553391      -3.00000000       848.176636       2.01641750    
   3.53553391       3.53553391      -2.00000000       848.176636       2.01641750    
   3.93283010       3.01776695      -2.00000000       848.176636       2.01641750    
   3.93283010       3.01776695      -3.00000000       848.176636       2.01641750    
   3.53553391       3.53553391      -2.00000000       881.352539       2.00989652    
   3.53553391       3.53553391      -1.00000000       881.352539       2.00989652    
   3.93283010       3.01776695      -1.00000000       881.352539       2.00989652    
   3.93283010       3.01776695      -2.00000000       881.352539       2.00989652    
   3.53553391       3.53553391      -1.00000000       912.401672       2.00708294    
   3.53553391       3.53553391       0.00000000       912.401672       2.00708294    
   3.93283010       3.01776695       0.00000000       912.401672       2.00708294    
   3.93283010       3.01776695      -1.00000000       912.401672       2.00708294    
   3.93283010       3.01776695      -10.0000000       567.963379       2.46149230    
   3.93283010       3.01776695      -9.00000000       567.963379       2.46149230    
   4.33012676       2.50000000      -9.00000000       567.963379       2.46149230    
   4.33012676       2.50000000      -10.0000000       567.963379       2.46149230    
   3.93283010       3.01776695      -9.00000000       638.945679       2.22777700    
   3.93283010       3.01776695      -8.00000000       638.945679       2.22777700    
   4.33012676       2.50000000      -8.00000000       638.945679       2.22777700    
   4.33012676       2.50000000      -9.00000000       638.945679       2.22777700    
   3.93283010       3.01776695      -8.00000000       705.235718       2.12758398    
   3.93283010       3.01776695      -7.00000000       705.235718       2.12758398    
   4.33012676       2.50000000      -7.00000000       705.235718       2.12758398    
   4.33012676       2.50000000      -8.00000000       705.235718       2.12758398    
   3.93283010       3.01776695      -7.00000000       762.756470       2.07119203    
   3.93283010       3.01776695      -6.00000000       762.756470       2.07119203    
   4.33012676       2.50000000      -6.00000000       762.756470       2.07119203    
   4.33012676       2.50000000      -7.00000000       762.756470       2.07119203    
   3.93283010       3.01776695      -6.00000000       813.614441       2.03600216    
   3.93283010       3.01776695      -5.00000000       813.614441       2.03600216    
   4.33012676       2.50000000      -5.00000000       813.614441       2.03600216    
   4.33012676       2.50000000      -6.00000000       813.614441       2.03600216    
   3.93283010       3.01776695      -5.00000000       859.657715       2.01306534    
   3.93283010       3.01776695      -4.00000000       859.657715       2.01306534    
   4.33012676       2.50000000      -4.00000000       859.657715       2.01306534    
   4.33012676       2.50000000      -5.00000000       859.657715       2.01306534    
   3.93283010       3.01776695      -4.00000000       902.076660       1.99767351    
   3.93283010       3.01776695      -3.00000000       902.076660       1.99767351    
   4.33012676       2.50000000      -3.00000000       902.076660       1.99767351    
   4.33012676       2.50000000      -4.00000000       902.076660       1.99767351    
   3.93283010       3.01776695      -3.00000000       941.576599       1.98753536    
   3.93283010       3.01776695      -2.00000000       941.576599       1.98753536    
   4.33012676       2.50000000      -2.00000000       941.576599       1.98753536    
   4.33012676       2.50000000      -3.00000000       941.576599       1.98753536    
   3.93283010       3.01776695      -2.00000000       978.687622       1.98157120    
   3.93283010       3.01776695      -1.00000000       978.687622       1.98157120    
   4.33012676       2.50000000      -1.00000000       978.687622       1.98157120    
   4.33012676       2.50000000      -2.00000000       978.687622       1.98157120    
   3.93283010       3.01776695      -1.00000000       1013.36261       1.97896850    
   3.93283010       3.01776695       0.00000000       1013.36261       1.97896850    
   4.33012676       2.50000000       0.00000000       1013.36261       1.97896850    
   4.33012676       2.50000000      -1.00000000       1013.36261       1.97896850    
   2.50000000       4.33012676      -10.0000000       453.081787       2.72824430    
   2.50000000       4.33012676      -9.00000000       453.081787       2.72824430    
   3.01776695       3.93283010      -9.00000000       453.081787       2.72824430    
   3.01776695       3.93283010      -10.0000000       453.081787       2.72824430    
   2.50000000       4.33012676      -9.00000000       452.693115       2.47487068    
   2.50000000       4.33012676      -8.00000000       452.693115       2.47487068    
   3.01776695       3.93283010      -8.00000000       452.693115       2.47487068    
   3.01776695       3.93283010      -9.00000000       452.693115       2.47487068    
   2.50000000       4.33012676      -8.00000000       476.535614       2.34673262    
   2.50000000       4.33012676      -7.00000000       476.535614       2.34673262    
   3.01776695       3.93283010      -7.00000000       476.535614       2.34673262    
   3.01776695       3.93283010      -8.00000000       476.535614       2.34673262    
   2.50000000       4.33012676      -7.00000000       503.323822       2.26960063    
   2.50000000       4.33012676      -6.00000000       503.323822       2.26960063    
   3.01776695       3.93283010      -6.00000000       503.323822       2.26960063    
   3.01776695       3.93283010      -7.00000000       503.323822       2.26960063    
   2.50000000       4.33012676      -6.00000000       529.778137       2.21986508    
   2.50000000       4.33012676      -5.00000000       529.778137       2.21986508    
   3.01776695       3.93283010      -5.00000000       529.778137       2.21986508    
   3.01776695       3.93283010      -6.00000000       529.778137       2.21986508    
   2.50000000       4.33012676      -5.00000000       555.330750       2.18685532    
   2.50000000       4.33012676      -4.00000000       555.330750       2.18685532    
   3.01776695       3.93283010      -4.00000000       555.330750       2.18685532    
   3.01776695       3.93283010      -5.00000000       555.330750       2.18685532    
   2.50000000       4.33012676      -4.00000000       579.826355       2.16448760    
   2.50000000       4.33012676      -3.00000000       579.826355       2.16448760    
   3.01776695       3.93283010      -3.00000000       579.826355       2.16448760    
   3.01776695       3.93283010      -4.00000000       579.826355       2.16448760    
   2.50000000       4.33012676      -3.00000000       603.295105       2.14969015    
   2.50000000       4.33012676      -2.00000000       603.295105       2.14969015    
   3.01776695       3.93283010      -2.00000000       603.295105       2.14969015    
   3.01776695       3.93283010      -3.00000000       603.295105       2.14969015    
   2.50000000       4.33012676      -2.00000000       625.937683       2.14096570    
   2.50000000       4.33012676      -1.00000000       625.937683       2.14096570    
   3.01776695       3.93283010      -1.00000000       625.937683       2.14096570    
   3.01776695       3.93283010      -2.00000000       625.937683       2.14096570    
   2.50000000       4.33012676      -1.00000000       647.534668       2.13725948    
   2.50000000       4.33012676       0.00000000       647.534668       2.13725948    
   3.01776695       3.93283010       0.00000000       647.534668       2.13725948    
   3.01776695       3.93283010      -1.00000000       647.534668       2.13725948    
   3.01776695       3.93283010      -10.0000000       487.789154       2.62157512    
   3.01776695       3.93283010      -9.00000000       487.789154       2.62157512    
   3.53553391       3.53553391      -9.00000000       487.789154       2.62157512    
   3.53553391       3.53553391      -10.0000000       487.789154       2.62157512    
   3.01776695       3.93283010      -9.00000000       512.770447       2.36735272    
   3.01776695       3.93283010      -8.00000000       512.770447       2.36735272    
   3.53553391       3.53553391      -8.00000000       512.770447       2.36735272    
   3.53553391       3.53553391      -9.00000000       512.770447       2.36735272    
   3.01776695       3.93283010      -8.00000000       552.297363       2.24791431    
   3.01776695       3.93283010      -7.00000000       552.297363       2.24791431    
   3.53553391       3.53553391      -7.00000000       552.297363       2.24791431    
   3.53553391       3.53553391      -8.00000000       552.297363       2.24791431    
   3.01776695       3.93283010      -7.00000000       590.446777       2.17843676    
   3.01776695       3.93283010      -6.00000000       590.446777       2.17843676    
   3.53553391       3.53553391      -6.00000000       590.446777       2.17843676    
   3.53553391       3.53553391      -7.00000000       590.446777       2.17843676    
   3.01776695       3.93283010      -6.00000000       625.861511       2.13442516    
   3.01776695       3.93283010      -5.00000000       625.861511       2.13442516    
   3.53553391       3.53553391      -5.00000000       625.861511       2.13442516    
   3.53553391       3.53553391      -6.00000000       625.861511       2.13442516    
   3.01776695       3.93283010      -5.00000000       658.855164       2.10552120    
   3.01776695       3.93283010      -4.00000000       658.855164       2.10552120    
   3.53553391       3.53553391      -4.00000000       658.855164       2.10552120    
   3.53553391       3.53553391      -5.00000000       658.855164       2.10552120    
   3.01776695       3.93283010      -4.00000000       689.792542       2.08605313    
   3.01776695       3.93283010      -3.00000000       689.792542       2.08605313    
   3.53553391       3.53553391      -3.00000000       689.792542       2.08605313    
   3.53553391       3.53553391      -4.00000000       689.792542       2.08605313    
   3.01776695       3.93283010      -3.00000000       718.966858       2.07321191    
   3.01776695       3.93283010      -2.00000000       718.966858       2.07321191    
   3.53553391       3.53553391      -2.00000000       718.966858       2.07321191    
   3.53553391       3.53553391      -3.00000000       718.966858       2.07321191    
   3.01776695       3.93283010      -2.00000000       746.697021       2.06565475    
   3.01776695       3.93283010      -1.00000000       746.697021       2.06565475    
   3.53553391       3.53553391      -1.00000000       746.697021       2.06565475    
   3.53553391       3.53553391      -2.00000000       746.697021       2.06565475    
   3.01776695       3.93283010      -1.00000000       772.885315       2.06238103    
   3.01776695       3.93283010       0.00000000       772.885315       2.06238103    
   3.53553391       3.53553391       0.00000000       772.885315       2.06238103    
   3.53553391       3.53553391      -1.00000000       772.885315       2.06238103    
   1.29409504       4.82962894      -10.0000000       399.485168       3.07394838    
   1.29409504       4.82962894      -9.00000000       399.485168       3.07394838    
   1.89704800       4.57987785      -9.00000000       399.485168       3.07394838    
   1.89704800       4.57987785      -10.0000000       399.485168       3.07394838    
   1.29409504       4.82962894      -9.00000000       344.482880       2.90527654    
   1.29409504       4.82962894      -8.00000000       344.482880       2.90527654    
   1.89704800       4.57987785      -8.00000000       344.482880       2.90527654    
   1.89704800       4.57987785      -9.00000000       344.482880       2.90527654    
   1.29409504       4.82962894      -8.00000000       330.114899       2.79368281    
   1.29409504       4.82962894      -7.00000000       330.114899       2.79368281    
   1.89704800       4.57987785      -7.00000000       330.114899       2.79368281    
   1.89704800       4.57987785      -8.00000000       330.114899       2.79368281    
   1.29409504       4.82962894      -7.00000000       327.913116       2.71468329    
   1.29409504       4.82962894      -6.00000000       327.913116       2.71468329    
   1.89704800       4.57987785      -6.00000000       327.913116       2.71468329    
   1.89704800       4.57987785      -7.00000000       327.913116       2.71468329    
   1.29409504       4.82962894      -6.00000000       331.350372       2.65815783    
   1.29409504       4.82962894      -5.00000000       331.350372       2.65815783    
   1.89704800       4.57987785      -5.00000000       331.350372       2.65815783    
   1.89704800       4.57987785      -6.00000000       331.350372       2.65815783    
   1.29409504       4.82962894      -5.00000000       337.988556       2.61792564    
   1.29409504       4.82962894      -4.00000000       337.988556       2.61792564    
   1.89704800       4.57987785      -4.00000000       337.988556       2.61792564    
   1.89704800       4.57987785      -5.00000000       337.988556       2.61792564    
   1.29409504       4.82962894      -4.00000000       346.428345       2.58943200    
   1.29409504       4.82962894      -3.00000000       346.428345       2.58943200    
   1.89704800       4.57987785      -3.00000000       346.428345       2.58943200    