 VARIABLES="X" "Y" "Z" "abs(p) (Pa)" "angle(p) (rad)"
ZONE N=   1080,E =     600, F=FEPOINT, ET=QUADRILATERAL
   4.82962894       1.29409504      -10.0000000       5328.96582     -0.413624138    
   4.82962894       1.29409504      -9.00000000       5328.96582     -0.413624138    
   4.91481400      0.647047520      -9.00000000       5328.96582     -0.413624138    
   4.91481400      0.647047520      -10.0000000       5328.96582     -0.413624138    
   4.82962894       1.29409504      -9.00000000       6901.03027     -0.444762647    
   4.82962894       1.29409504      -8.00000000       6901.03027     -0.444762647    
   4.91481400      0.647047520      -8.00000000       6901.03027     -0.444762647    
   4.91481400      0.647047520      -9.00000000       6901.03027     -0.444762647    
   4.82962894       1.29409504      -8.00000000       9299.87012     -0.624526799    
   4.82962894       1.29409504      -7.00000000       9299.87012     -0.624526799    
   4.91481400      0.647047520      -7.00000000       9299.87012     -0.624526799    
   4.91481400      0.647047520      -8.00000000       9299.87012     -0.624526799    
   4.82962894       1.29409504      -7.00000000       12473.2256     -0.767355144    
   4.82962894       1.29409504      -6.00000000       12473.2256     -0.767355144    
   4.91481400      0.647047520      -6.00000000       12473.2256     -0.767355144    
   4.91481400      0.647047520      -7.00000000       12473.2256     -0.767355144    
   4.82962894       1.29409504      -6.00000000       16286.0234     -0.862879157    
   4.82962894       1.29409504      -5.00000000       16286.0234     -0.862879157    
   4.91481400      0.647047520      -5.00000000       16286.0234     -0.862879157    
   4.91481400      0.647047520      -6.00000000       16286.0234     -0.862879157    
   4.82962894       1.29409504      -5.00000000       20616.3223     -0.923533082    
   4.82962894       1.29409504      -4.00000000       20616.3223     -0.923533082    
   4.91481400      0.647047520      -4.00000000       20616.3223     -0.923533082    
   4.91481400      0.647047520      -5.00000000       20616.3223     -0.923533082    
   4.82962894       1.29409504      -4.00000000       25397.3184     -0.960741878    
   4.82962894       1.29409504      -3.00000000       25397.3184     -0.960741878    
   4.91481400      0.647047520      -3.00000000       25397.3184     -0.960741878    
   4.91481400      0.647047520      -4.00000000       25397.3184     -0.960741878    
   4.82962894       1.29409504      -3.00000000       30611.5410     -0.982224584    
   4.82962894       1.29409504      -2.00000000       30611.5410     -0.982224584    
   4.91481400      0.647047520      -2.00000000       30611.5410     -0.982224584    
   4.91481400      0.647047520      -3.00000000       30611.5410     -0.982224584    
   4.82962894       1.29409504      -2.00000000       36291.8633     -0.992989480    
   4.82962894       1.29409504      -1.00000000       36291.8633     -0.992989480    
   4.91481400      0.647047520      -1.00000000       36291.8633     -0.992989480    
   4.91481400      0.647047520      -2.00000000       36291.8633     -0.992989480    
   4.82962894       1.29409504      -1.00000000       42486.8242     -0.996257246    
   4.82962894       1.29409504       0.00000000       42486.8242     -0.996257246    
   4.91481400      0.647047520       0.00000000       42486.8242     -0.996257246    
   4.91481400      0.647047520      -1.00000000       42486.8242     -0.996257246    
   4.91481400      0.647047520      -10.0000000       5421.32324     -0.415073752    
   4.91481400      0.647047520      -9.00000000       5421.32324     -0.415073752    
   5.00000000       0.00000000      -9.00000000       5421.32324     -0.415073752    
   5.00000000       0.00000000      -10.0000000       5421.32324     -0.415073752    
   4.91481400      0.647047520      -9.00000000       7017.87305     -0.445375800    
   4.91481400      0.647047520      -8.00000000       7017.87305     -0.445375800    
   5.00000000       0.00000000      -8.00000000       7017.87305     -0.445375800    
   5.00000000       0.00000000      -9.00000000       7017.87305     -0.445375800    
   4.91481400      0.647047520      -8.00000000       9454.41309     -0.624511123    
   4.91481400      0.647047520      -7.00000000       9454.41309     -0.624511123    
   5.00000000       0.00000000      -7.00000000       9454.41309     -0.624511123    
   5.00000000       0.00000000      -8.00000000       9454.41309     -0.624511123    
   4.91481400      0.647047520      -7.00000000       12677.0303     -0.767061234    
   4.91481400      0.647047520      -6.00000000       12677.0303     -0.767061234    
   5.00000000       0.00000000      -6.00000000       12677.0303     -0.767061234    
   5.00000000       0.00000000      -7.00000000       12677.0303     -0.767061234    
   4.91481400      0.647047520      -6.00000000       16549.0449     -0.862477720    
   4.91481400      0.647047520      -5.00000000       16549.0449     -0.862477720    
   5.00000000       0.00000000      -5.00000000       16549.0449     -0.862477720    
   5.00000000       0.00000000      -6.00000000       16549.0449     -0.862477720    
   4.91481400      0.647047520      -5.00000000       20946.9336     -0.923093855    
   4.91481400      0.647047520      -4.00000000       20946.9336     -0.923093855    
   5.00000000       0.00000000      -4.00000000       20946.9336     -0.923093855    
   5.00000000       0.00000000      -5.00000000       20946.9336     -0.923093855    
   4.91481400      0.647047520      -4.00000000       25802.8652     -0.960289061    
   4.91481400      0.647047520      -3.00000000       25802.8652     -0.960289061    
   5.00000000       0.00000000      -3.00000000       25802.8652     -0.960289061    
   5.00000000       0.00000000      -4.00000000       25802.8652     -0.960289061    
   4.91481400      0.647047520      -3.00000000       31099.3281     -0.981769860    
   4.91481400      0.647047520      -2.00000000       31099.3281     -0.981769860    
   5.00000000       0.00000000      -2.00000000       31099.3281     -0.981769860    
   5.00000000       0.00000000      -3.00000000       31099.3281     -0.981769860    
   4.91481400      0.647047520      -2.00000000       36869.6992     -0.992536902    
   4.91481400      0.647047520      -1.00000000       36869.6992     -0.992536902    
   5.00000000       0.00000000      -1.00000000       36869.6992     -0.992536902    
   5.00000000       0.00000000      -2.00000000       36869.6992     -0.992536902    
   4.91481400      0.647047520      -1.00000000       43163.8008     -0.995811701    
   4.91481400      0.647047520       0.00000000       43163.8008     -0.995811701    
   5.00000000       0.00000000       0.00000000       43163.8008     -0.995811701    
   5.00000000       0.00000000      -1.00000000       43163.8008     -0.995811701    
   4.33012676       2.50000000      -10.0000000       4873.46387     -0.412012011    
   4.33012676       2.50000000      -9.00000000       4873.46387     -0.412012011    
   4.57987785       1.89704800      -9.00000000       4873.46387     -0.412012011    
   4.57987785       1.89704800      -10.0000000       4873.46387     -0.412012011    
   4.33012676       2.50000000      -9.00000000       6313.89941     -0.444080740    
   4.33012676       2.50000000      -8.00000000       6313.89941     -0.444080740    
   4.57987785       1.89704800      -8.00000000       6313.89941     -0.444080740    
   4.57987785       1.89704800      -9.00000000       6313.89941     -0.444080740    
   4.33012676       2.50000000      -8.00000000       8511.56055     -0.624544680    
   4.33012676       2.50000000      -7.00000000       8511.56055     -0.624544680    
   4.57987785       1.89704800      -7.00000000       8511.56055     -0.624544680    
   4.57987785       1.89704800      -8.00000000       8511.56055     -0.624544680    
   4.33012676       2.50000000      -7.00000000       11419.3848     -0.767681420    
   4.33012676       2.50000000      -6.00000000       11419.3848     -0.767681420    
   4.57987785       1.89704800      -6.00000000       11419.3848     -0.767681420    
   4.57987785       1.89704800      -7.00000000       11419.3848     -0.767681420    
   4.33012676       2.50000000      -6.00000000       14913.1309     -0.863325417    
   4.33012676       2.50000000      -5.00000000       14913.1309     -0.863325417    
   4.57987785       1.89704800      -5.00000000       14913.1309     -0.863325417    
   4.57987785       1.89704800      -6.00000000       14913.1309     -0.863325417    
   4.33012676       2.50000000      -5.00000000       18880.7383     -0.924020231    
   4.33012676       2.50000000      -4.00000000       18880.7383     -0.924020231    
   4.57987785       1.89704800      -4.00000000       18880.7383     -0.924020231    
   4.57987785       1.89704800      -5.00000000       18880.7383     -0.924020231    
   4.33012676       2.50000000      -4.00000000       23260.9844     -0.961244166    
   4.33012676       2.50000000      -3.00000000       23260.9844     -0.961244166    
   4.57987785       1.89704800      -3.00000000       23260.9844     -0.961244166    
   4.57987785       1.89704800      -4.00000000       23260.9844     -0.961244166    
   4.33012676       2.50000000      -3.00000000       28037.6426     -0.982728481    
   4.33012676       2.50000000      -2.00000000       28037.6426     -0.982728481    
   4.57987785       1.89704800      -2.00000000       28037.6426     -0.982728481    
   4.57987785       1.89704800      -3.00000000       28037.6426     -0.982728481    
   4.33012676       2.50000000      -2.00000000       33240.8164     -0.993491232    
   4.33012676       2.50000000      -1.00000000       33240.8164     -0.993491232    
   4.57987785       1.89704800      -1.00000000       33240.8164     -0.993491232    
   4.57987785       1.89704800      -2.00000000       33240.8164     -0.993491232    
   4.33012676       2.50000000      -1.00000000       38914.4570     -0.996751308    
   4.33012676       2.50000000       0.00000000       38914.4570     -0.996751308    
   4.57987785       1.89704800       0.00000000       38914.4570     -0.996751308    
   4.57987785       1.89704800      -1.00000000       38914.4570     -0.996751308    
   4.57987785       1.89704800      -10.0000000       5144.23779     -0.416573286    
   4.57987785       1.89704800      -9.00000000       5144.23779     -0.416573286    
   4.82962894       1.29409504      -9.00000000       5144.23779     -0.416573286    
   4.82962894       1.29409504      -10.0000000       5144.23779     -0.416573286    
   4.57987785       1.89704800      -9.00000000       6656.46338     -0.446011484    
   4.57987785       1.89704800      -8.00000000       6656.46338     -0.446011484    
   4.82962894       1.29409504      -8.00000000       6656.46338     -0.446011484    
   4.82962894       1.29409504      -9.00000000       6656.46338     -0.446011484    
   4.57987785       1.89704800      -8.00000000       8964.66211     -0.624493301    
   4.57987785       1.89704800      -7.00000000       8964.66211     -0.624493301    
   4.82962894       1.29409504      -7.00000000       8964.66211     -0.624493301    
   4.82962894       1.29409504      -8.00000000       8964.66211     -0.624493301    
   4.57987785       1.89704800      -7.00000000       12016.9307     -0.766755700    
   4.57987785       1.89704800      -6.00000000       12016.9307     -0.766755700    
   4.82962894       1.29409504      -6.00000000       12016.9307     -0.766755700    
   4.82962894       1.29409504      -7.00000000       12016.9307     -0.766755700    
   4.57987785       1.89704800      -6.00000000       15684.2920     -0.862060130    
   4.57987785       1.89704800      -5.00000000       15684.2920     -0.862060130    
   4.82962894       1.29409504      -5.00000000       15684.2920     -0.862060130    
   4.82962894       1.29409504      -6.00000000       15684.2920     -0.862060130    
   4.57987785       1.89704800      -5.00000000       19850.0645     -0.922637999    
   4.57987785       1.89704800      -4.00000000       19850.0645     -0.922637999    
   4.82962894       1.29409504      -4.00000000       19850.0645     -0.922637999    
   4.82962894       1.29409504      -5.00000000       19850.0645     -0.922637999    
   4.57987785       1.89704800      -4.00000000       24449.9902     -0.959819138    
   4.57987785       1.89704800      -3.00000000       24449.9902     -0.959819138    
   4.82962894       1.29409504      -3.00000000       24449.9902     -0.959819138    
   4.82962894       1.29409504      -4.00000000       24449.9902     -0.959819138    
   4.57987785       1.89704800      -3.00000000       29467.7598     -0.981297910    
   4.57987785       1.89704800      -2.00000000       29467.7598     -0.981297910    
   4.82962894       1.29409504      -2.00000000       29467.7598     -0.981297910    
   4.82962894       1.29409504      -3.00000000       29467.7598     -0.981297910    
   4.57987785       1.89704800      -2.00000000       34934.9219     -0.992067635    
   4.57987785       1.89704800      -1.00000000       34934.9219     -0.992067635    
   4.82962894       1.29409504      -1.00000000       34934.9219     -0.992067635    
   4.82962894       1.29409504      -2.00000000       34934.9219     -0.992067635    
   4.57987785       1.89704800      -1.00000000       40899.2578     -0.995348990    
   4.57987785       1.89704800       0.00000000       40899.2578     -0.995348990    
   4.82962894       1.29409504       0.00000000       40899.2578     -0.995348990    
   4.82962894       1.29409504      -1.00000000       40899.2578     -0.995348990    
   3.53553391       3.53553391      -10.0000000       4085.85596     -0.409909427    
   3.53553391       3.53553391      -9.00000000       4085.85596     -0.409909427    
   3.93283010       3.01776695      -9.00000000       4085.85596     -0.409909427    
   3.93283010       3.01776695      -10.0000000       4085.85596     -0.409909427    
   3.53553391       3.53553391      -9.00000000       5296.48779     -0.443192333    
   3.53553391       3.53553391      -8.00000000       5296.48779     -0.443192333    
   3.93283010       3.01776695      -8.00000000       5296.48779     -0.443192333    
   3.93283010       3.01776695      -9.00000000       5296.48779     -0.443192333    
   3.53553391       3.53553391      -8.00000000       7143.19092     -0.624568582    
   3.53553391       3.53553391      -7.00000000       7143.19092     -0.624568582    
   3.93283010       3.01776695      -7.00000000       7143.19092     -0.624568582    
   3.93283010       3.01776695      -8.00000000       7143.19092     -0.624568582    
   3.53553391       3.53553391      -7.00000000       9587.33789     -0.768105865    
   3.53553391       3.53553391      -6.00000000       9587.33789     -0.768105865    
   3.93283010       3.01776695      -6.00000000       9587.33789     -0.768105865    
   3.93283010       3.01776695      -7.00000000       9587.33789     -0.768105865    
   3.53553391       3.53553391      -6.00000000       12523.9424     -0.863904715    
   3.53553391       3.53553391      -5.00000000       12523.9424     -0.863904715    
   3.93283010       3.01776695      -5.00000000       12523.9424     -0.863904715    
   3.93283010       3.01776695      -6.00000000       12523.9424     -0.863904715    
   3.53553391       3.53553391      -5.00000000       15858.4727     -0.924653053    
   3.53553391       3.53553391      -4.00000000       15858.4727     -0.924653053    
   3.93283010       3.01776695      -4.00000000       15858.4727     -0.924653053    
   3.93283010       3.01776695      -5.00000000       15858.4727     -0.924653053    
   3.53553391       3.53553391      -4.00000000       19539.4785     -0.961896241    
   3.53553391       3.53553391      -3.00000000       19539.4785     -0.961896241    
   3.93283010       3.01776695      -3.00000000       19539.4785     -0.961896241    
   3.93283010       3.01776695      -4.00000000       19539.4785     -0.961896241    
   3.53553391       3.53553391      -3.00000000       23553.0273     -0.983383000    
   3.53553391       3.53553391      -2.00000000       23553.0273     -0.983383000    
   3.93283010       3.01776695      -2.00000000       23553.0273     -0.983383000    
   3.93283010       3.01776695      -3.00000000       23553.0273     -0.983383000    
   3.53553391       3.53553391      -2.00000000       27924.4961     -0.994142950    
   3.53553391       3.53553391      -1.00000000       27924.4961     -0.994142950    
   3.93283010       3.01776695      -1.00000000       27924.4961     -0.994142950    
   3.93283010       3.01776695      -2.00000000       27924.4961     -0.994142950    
   3.53553391       3.53553391      -1.00000000       32690.1504     -0.997393191    
   3.53553391       3.53553391       0.00000000       32690.1504     -0.997393191    
   3.93283010       3.01776695       0.00000000       32690.1504     -0.997393191    
   3.93283010       3.01776695      -1.00000000       32690.1504     -0.997393191    
   3.93283010       3.01776695      -10.0000000       4516.59180     -0.418376058    
   3.93283010       3.01776695      -9.00000000       4516.59180     -0.418376058    
   4.33012676       2.50000000      -9.00000000       4516.59180     -0.418376058    
   4.33012676       2.50000000      -10.0000000       4516.59180     -0.418376058    
   3.93283010       3.01776695      -9.00000000       5841.42529     -0.446774751    
   3.93283010       3.01776695      -8.00000000       5841.42529     -0.446774751    
   4.33012676       2.50000000      -8.00000000       5841.42529     -0.446774751    
   4.33012676       2.50000000      -9.00000000       5841.42529     -0.446774751    
   3.93283010       3.01776695      -8.00000000       7863.97266     -0.624473095    
   3.93283010       3.01776695      -7.00000000       7863.97266     -0.624473095    
   4.33012676       2.50000000      -7.00000000       7863.97266     -0.624473095    
   4.33012676       2.50000000      -8.00000000       7863.97266     -0.624473095    
   3.93283010       3.01776695      -7.00000000       10537.8828     -0.766389012    
   3.93283010       3.01776695      -6.00000000       10537.8828     -0.766389012    
   4.33012676       2.50000000      -6.00000000       10537.8828     -0.766389012    
   4.33012676       2.50000000      -7.00000000       10537.8828     -0.766389012    
   3.93283010       3.01776695      -6.00000000       13750.6738     -0.861558676    
   3.93283010       3.01776695      -5.00000000       13750.6738     -0.861558676    
   4.33012676       2.50000000      -5.00000000       13750.6738     -0.861558676    
   4.33012676       2.50000000      -6.00000000       13750.6738     -0.861558676    
   3.93283010       3.01776695      -5.00000000       17400.4336     -0.922089279    
   3.93283010       3.01776695      -4.00000000       17400.4336     -0.922089279    
   4.33012676       2.50000000      -4.00000000       17400.4336     -0.922089279    
   4.33012676       2.50000000      -5.00000000       17400.4336     -0.922089279    
   3.93283010       3.01776695      -4.00000000       21430.9082     -0.959253371    
   3.93283010       3.01776695      -3.00000000       21430.9082     -0.959253371    
   4.33012676       2.50000000      -3.00000000       21430.9082     -0.959253371    
   4.33012676       2.50000000      -4.00000000       21430.9082     -0.959253371    
   3.93283010       3.01776695      -3.00000000       25828.0098     -0.980729461    
   3.93283010       3.01776695      -2.00000000       25828.0098     -0.980729461    
   4.33012676       2.50000000      -2.00000000       25828.0098     -0.980729461    
   4.33012676       2.50000000      -3.00000000       25828.0098     -0.980729461    
   3.93283010       3.01776695      -2.00000000       30619.3926     -0.991501868    
   3.93283010       3.01776695      -1.00000000       30619.3926     -0.991501868    
   4.33012676       2.50000000      -1.00000000       30619.3926     -0.991501868    
   4.33012676       2.50000000      -2.00000000       30619.3926     -0.991501868    
   3.93283010       3.01776695      -1.00000000       35847.4961     -0.994791925    
   3.93283010       3.01776695       0.00000000       35847.4961     -0.994791925    
   4.33012676       2.50000000       0.00000000       35847.4961     -0.994791925    
   4.33012676       2.50000000      -1.00000000       35847.4961     -0.994791925    
   2.50000000       4.33012676      -10.0000000       3019.82788     -0.406515002    
   2.50000000       4.33012676      -9.00000000       3019.82788     -0.406515002    
   3.01776695       3.93283010      -9.00000000       3019.82788     -0.406515002    
   3.01776695       3.93283010      -10.0000000       3019.82788     -0.406515002    
   2.50000000       4.33012676      -9.00000000       3918.13574     -0.441760868    
   2.50000000       4.33012676      -8.00000000       3918.13574     -0.441760868    
   3.01776695       3.93283010      -8.00000000       3918.13574     -0.441760868    
   3.01776695       3.93283010      -9.00000000       3918.13574     -0.441760868    
   2.50000000       4.33012676      -8.00000000       5288.03027     -0.624606609    
   2.50000000       4.33012676      -7.00000000       5288.03027     -0.624606609    
   3.01776695       3.93283010      -7.00000000       5288.03027     -0.624606609    
   3.01776695       3.93283010      -8.00000000       5288.03027     -0.624606609    
   2.50000000       4.33012676      -7.00000000       7101.93262     -0.768788278    
   2.50000000       4.33012676      -6.00000000       7101.93262     -0.768788278    
   3.01776695       3.93283010      -6.00000000       7101.93262     -0.768788278    
   3.01776695       3.93283010      -7.00000000       7101.93262     -0.768788278    
   2.50000000       4.33012676      -6.00000000       9281.27344     -0.864836931    
   2.50000000       4.33012676      -5.00000000       9281.27344     -0.864836931    
   3.01776695       3.93283010      -5.00000000       9281.27344     -0.864836931    
   3.01776695       3.93283010      -6.00000000       9281.27344     -0.864836931    
   2.50000000       4.33012676      -5.00000000       11755.4893     -0.925669968    
   2.50000000       4.33012676      -4.00000000       11755.4893     -0.925669968    
   3.01776695       3.93283010      -4.00000000       11755.4893     -0.925669968    
   3.01776695       3.93283010      -5.00000000       11755.4893     -0.925669968    
   2.50000000       4.33012676      -4.00000000       14486.3945     -0.962944031    
   2.50000000       4.33012676      -3.00000000       14486.3945     -0.962944031    
   3.01776695       3.93283010      -3.00000000       14486.3945     -0.962944031    
   3.01776695       3.93283010      -4.00000000       14486.3945     -0.962944031    
   2.50000000       4.33012676      -3.00000000       17463.3359     -0.984434962    
   2.50000000       4.33012676      -2.00000000       17463.3359     -0.984434962    
   3.01776695       3.93283010      -2.00000000       17463.3359     -0.984434962    
   3.01776695       3.93283010      -3.00000000       17463.3359     -0.984434962    
   2.50000000       4.33012676      -2.00000000       20705.1523     -0.995189607    
   2.50000000       4.33012676      -1.00000000       20705.1523     -0.995189607    
   3.01776695       3.93283010      -1.00000000       20705.1523     -0.995189607    
   3.01776695       3.93283010      -2.00000000       20705.1523     -0.995189607    
   2.50000000       4.33012676      -1.00000000       24238.0625     -0.998424411    
   2.50000000       4.33012676       0.00000000       24238.0625     -0.998424411    
   3.01776695       3.93283010       0.00000000       24238.0625     -0.998424411    
   3.01776695       3.93283010      -1.00000000       24238.0625     -0.998424411    
   3.01776695       3.93283010      -10.0000000       3581.17090     -0.420963049    
   3.01776695       3.93283010      -9.00000000       3581.17090     -0.420963049    
   3.53553391       3.53553391      -9.00000000       3581.17090     -0.420963049    
   3.53553391       3.53553391      -10.0000000       3581.17090     -0.420963049    
   3.01776695       3.93283010      -9.00000000       4628.31006     -0.447874606    
   3.01776695       3.93283010      -8.00000000       4628.31006     -0.447874606    
   3.53553391       3.53553391      -8.00000000       4628.31006     -0.447874606    
   3.53553391       3.53553391      -9.00000000       4628.31006     -0.447874606    
   3.01776695       3.93283010      -8.00000000       6227.37744     -0.624443531    
   3.01776695       3.93283010      -7.00000000       6227.37744     -0.624443531    
   3.53553391       3.53553391      -7.00000000       6227.37744     -0.624443531    
   3.53553391       3.53553391      -8.00000000       6227.37744     -0.624443531    
   3.01776695       3.93283010      -7.00000000       8340.70996     -0.765859962    
   3.01776695       3.93283010      -6.00000000       8340.70996     -0.765859962    
   3.53553391       3.53553391      -6.00000000       8340.70996     -0.765859962    
   3.53553391       3.53553391      -7.00000000       8340.70996     -0.765859962    
   3.01776695       3.93283010      -6.00000000       10879.9736     -0.860834837    
   3.01776695       3.93283010      -5.00000000       10879.9736     -0.860834837    
   3.53553391       3.53553391      -5.00000000       10879.9736     -0.860834837    
   3.53553391       3.53553391      -6.00000000       10879.9736     -0.860834837    
   3.01776695       3.93283010      -5.00000000       13765.0078     -0.921297669    
   3.01776695       3.93283010      -4.00000000       13765.0078     -0.921297669    
   3.53553391       3.53553391      -4.00000000       13765.0078     -0.921297669    
   3.53553391       3.53553391      -5.00000000       13765.0078     -0.921297669    
   3.01776695       3.93283010      -4.00000000       16951.3438     -0.958436728    
   3.01776695       3.93283010      -3.00000000       16951.3438     -0.958436728    
   3.53553391       3.53553391      -3.00000000       16951.3438     -0.958436728    
   3.53553391       3.53553391      -4.00000000       16951.3438     -0.958436728    
   3.01776695       3.93283010      -3.00000000       20428.1445     -0.979909897    
   3.01776695       3.93283010      -2.00000000       20428.1445     -0.979909897    
   3.53553391       3.53553391      -2.00000000       20428.1445     -0.979909897    
   3.53553391       3.53553391      -3.00000000       20428.1445     -0.979909897    
   3.01776695       3.93283010      -2.00000000       24217.2109     -0.990685523    
   3.01776695       3.93283010      -1.00000000       24217.2109     -0.990685523    
   3.53553391       3.53553391      -1.00000000       24217.2109     -0.990685523    
   3.53553391       3.53553391      -2.00000000       24217.2109     -0.990685523    
   3.01776695       3.93283010      -1.00000000       28352.7910     -0.993988574    
   3.01776695       3.93283010       0.00000000       28352.7910     -0.993988574    
   3.53553391       3.53553391       0.00000000       28352.7910     -0.993988574    
   3.53553391       3.53553391      -1.00000000       28352.7910     -0.993988574    
   1.29409504       4.82962894      -10.0000000       1748.08752     -0.398585677    
   1.29409504       4.82962894      -9.00000000       1748.08752     -0.398585677    
   1.89704800       4.57987785      -9.00000000       1748.08752     -0.398585677    
   1.89704800       4.57987785      -10.0000000       1748.08752     -0.398585677    
   1.29409504       4.82962894      -9.00000000       2272.78857     -0.438425928    
   1.29409504       4.82962894      -8.00000000       2272.78857     -0.438425928    
   1.89704800       4.57987785      -8.00000000       2272.78857     -0.438425928    
   1.89704800       4.57987785      -9.00000000       2272.78857     -0.438425928    
   1.29409504       4.82962894      -8.00000000       3072.49854     -0.624694824    
   1.29409504       4.82962894      -7.00000000       3072.49854     -0.624694824    
   1.89704800       4.57987785      -7.00000000       3072.49854     -0.624694824    
   1.89704800       4.57987785      -8.00000000       3072.49854     -0.624694824    
   1.29409504       4.82962894      -7.00000000       4132.54639     -0.770371675    
   1.29409504       4.82962894      -6.00000000       4132.54639     -0.770371675    
   1.89704800       4.57987785      -6.00000000       4132.54639     -0.770371675    
   1.89704800       4.57987785      -7.00000000       4132.54639     -0.770371675    
   1.29409504       4.82962894      -6.00000000       5406.11719     -0.866994619    
   1.29409504       4.82962894      -5.00000000       5406.11719     -0.866994619    
   1.89704800       4.57987785      -5.00000000       5406.11719     -0.866994619    
   1.89704800       4.57987785      -6.00000000       5406.11719     -0.866994619    
   1.29409504       4.82962894      -5.00000000       6851.40918     -0.928024173    
   1.29409504       4.82962894      -4.00000000       6851.40918     -0.928024173    
   1.89704800       4.57987785      -4.00000000       6851.40918     -0.928024173    
   1.89704800       4.57987785      -5.00000000       6851.40918     -0.928024173    
   1.29409504       4.82962894      -4.00000000       8446.11230     -0.965367615    
   1.29409504       4.82962894      -3.00000000       8446.11230     -0.965367615    
   1.89704800       4.57987785      -3.00000000       8446.11230     -0.965367615    