 VARIABLES="X" "Y" "Z" "abs(p) (Pa)" "angle(p) (rad)"
ZONE N=   1080,E =     600, F=FEPOINT, ET=QUADRILATERAL
   4.82962894       1.29409504      -10.0000000       910.961975       3.11639071    
   4.82962894       1.29409504      -9.00000000       910.961975       3.11639071    
   4.91481400      0.647047520      -9.00000000       910.961975       3.11639071    
   4.91481400      0.647047520      -10.0000000       910.961975       3.11639071    
   4.82962894       1.29409504      -9.00000000       1226.33899       3.11226559    
   4.82962894       1.29409504      -8.00000000       1226.33899       3.11226559    
   4.91481400      0.647047520      -8.00000000       1226.33899       3.11226559    
   4.91481400      0.647047520      -9.00000000       1226.33899       3.11226559    
   4.82962894       1.29409504      -8.00000000       1615.93872       2.87955666    
   4.82962894       1.29409504      -7.00000000       1615.93872       2.87955666    
   4.91481400      0.647047520      -7.00000000       1615.93872       2.87955666    
   4.91481400      0.647047520      -8.00000000       1615.93872       2.87955666    
   4.82962894       1.29409504      -7.00000000       2175.55908       2.68461275    
   4.82962894       1.29409504      -6.00000000       2175.55908       2.68461275    
   4.91481400      0.647047520      -6.00000000       2175.55908       2.68461275    
   4.91481400      0.647047520      -7.00000000       2175.55908       2.68461275    
   4.82962894       1.29409504      -6.00000000       2900.12988       2.55897069    
   4.82962894       1.29409504      -5.00000000       2900.12988       2.55897069    
   4.91481400      0.647047520      -5.00000000       2900.12988       2.55897069    
   4.91481400      0.647047520      -6.00000000       2900.12988       2.55897069    
   4.82962894       1.29409504      -5.00000000       3773.04272       2.48590994    
   4.82962894       1.29409504      -4.00000000       3773.04272       2.48590994    
   4.91481400      0.647047520      -4.00000000       3773.04272       2.48590994    
   4.91481400      0.647047520      -5.00000000       3773.04272       2.48590994    
   4.82962894       1.29409504      -4.00000000       4789.46289       2.44821787    
   4.82962894       1.29409504      -3.00000000       4789.46289       2.44821787    
   4.91481400      0.647047520      -3.00000000       4789.46289       2.44821787    
   4.91481400      0.647047520      -4.00000000       4789.46289       2.44821787    
   4.82962894       1.29409504      -3.00000000       5965.50342       2.43297553    
   4.82962894       1.29409504      -2.00000000       5965.50342       2.43297553    
   4.91481400      0.647047520      -2.00000000       5965.50342       2.43297553    
   4.91481400      0.647047520      -3.00000000       5965.50342       2.43297553    
   4.82962894       1.29409504      -2.00000000       7340.06006       2.43089771    
   4.82962894       1.29409504      -1.00000000       7340.06006       2.43089771    
   4.91481400      0.647047520      -1.00000000       7340.06006       2.43089771    
   4.91481400      0.647047520      -2.00000000       7340.06006       2.43089771    
   4.82962894       1.29409504      -1.00000000       8975.15430       2.43493557    
   4.82962894       1.29409504       0.00000000       8975.15430       2.43493557    
   4.91481400      0.647047520       0.00000000       8975.15430       2.43493557    
   4.91481400      0.647047520      -1.00000000       8975.15430       2.43493557    
   4.91481400      0.647047520      -10.0000000       324.969177      -3.01038671    
   4.91481400      0.647047520      -9.00000000       324.969177      -3.01038671    
   5.00000000       0.00000000      -9.00000000       324.969177      -3.01038671    
   5.00000000       0.00000000      -10.0000000       324.969177      -3.01038671    
   4.91481400      0.647047520      -9.00000000       435.676788      -3.10620594    
   4.91481400      0.647047520      -8.00000000       435.676788      -3.10620594    
   5.00000000       0.00000000      -8.00000000       435.676788      -3.10620594    
   5.00000000       0.00000000      -9.00000000       435.676788      -3.10620594    
   4.91481400      0.647047520      -8.00000000       574.423523       2.87770438    
   4.91481400      0.647047520      -7.00000000       574.423523       2.87770438    
   5.00000000       0.00000000      -7.00000000       574.423523       2.87770438    
   5.00000000       0.00000000      -8.00000000       574.423523       2.87770438    
   4.91481400      0.647047520      -7.00000000       787.045654       2.64976645    
   4.91481400      0.647047520      -6.00000000       787.045654       2.64976645    
   5.00000000       0.00000000      -6.00000000       787.045654       2.64976645    
   5.00000000       0.00000000      -7.00000000       787.045654       2.64976645    
   4.91481400      0.647047520      -6.00000000       1065.02563       2.51159811    
   4.91481400      0.647047520      -5.00000000       1065.02563       2.51159811    
   5.00000000       0.00000000      -5.00000000       1065.02563       2.51159811    
   5.00000000       0.00000000      -6.00000000       1065.02563       2.51159811    
   4.91481400      0.647047520      -5.00000000       1397.63135       2.43478870    
   4.91481400      0.647047520      -4.00000000       1397.63135       2.43478870    
   5.00000000       0.00000000      -4.00000000       1397.63135       2.43478870    
   5.00000000       0.00000000      -5.00000000       1397.63135       2.43478870    
   4.91481400      0.647047520      -4.00000000       1781.61877       2.39620209    
   4.91481400      0.647047520      -3.00000000       1781.61877       2.39620209    
   5.00000000       0.00000000      -3.00000000       1781.61877       2.39620209    
   5.00000000       0.00000000      -4.00000000       1781.61877       2.39620209    
   4.91481400      0.647047520      -3.00000000       2221.02075       2.38151002    
   4.91481400      0.647047520      -2.00000000       2221.02075       2.38151002    
   5.00000000       0.00000000      -2.00000000       2221.02075       2.38151002    
   5.00000000       0.00000000      -3.00000000       2221.02075       2.38151002    
   4.91481400      0.647047520      -2.00000000       2729.97900       2.38072205    
   4.91481400      0.647047520      -1.00000000       2729.97900       2.38072205    
   5.00000000       0.00000000      -1.00000000       2729.97900       2.38072205    
   5.00000000       0.00000000      -2.00000000       2729.97900       2.38072205    
   4.91481400      0.647047520      -1.00000000       3327.92139       2.38702893    
   4.91481400      0.647047520       0.00000000       3327.92139       2.38702893    
   5.00000000       0.00000000       0.00000000       3327.92139       2.38702893    
   5.00000000       0.00000000      -1.00000000       3327.92139       2.38702893    
   4.33012676       2.50000000      -10.0000000       2081.45850       3.14071131    
   4.33012676       2.50000000      -9.00000000       2081.45850       3.14071131    
   4.57987785       1.89704800      -9.00000000       2081.45850       3.14071131    
   4.57987785       1.89704800      -10.0000000       2081.45850       3.14071131    
   4.33012676       2.50000000      -9.00000000       2804.00562       3.12231636    
   4.33012676       2.50000000      -8.00000000       2804.00562       3.12231636    
   4.57987785       1.89704800      -8.00000000       2804.00562       3.12231636    
   4.57987785       1.89704800      -9.00000000       2804.00562       3.12231636    
   4.33012676       2.50000000      -8.00000000       3696.17041       2.87926793    
   4.33012676       2.50000000      -7.00000000       3696.17041       2.87926793    
   4.57987785       1.89704800      -7.00000000       3696.17041       2.87926793    
   4.57987785       1.89704800      -8.00000000       3696.17041       2.87926793    
   4.33012676       2.50000000      -7.00000000       4989.50049       2.67911720    
   4.33012676       2.50000000      -6.00000000       4989.50049       2.67911720    
   4.57987785       1.89704800      -6.00000000       4989.50049       2.67911720    
   4.57987785       1.89704800      -7.00000000       4989.50049       2.67911720    
   4.33012676       2.50000000      -6.00000000       6666.64941       2.55140400    
   4.33012676       2.50000000      -5.00000000       6666.64941       2.55140400    
   4.57987785       1.89704800      -5.00000000       6666.64941       2.55140400    
   4.57987785       1.89704800      -6.00000000       6666.64941       2.55140400    
   4.33012676       2.50000000      -5.00000000       8685.06348       2.47768784    
   4.33012676       2.50000000      -4.00000000       8685.06348       2.47768784    
   4.57987785       1.89704800      -4.00000000       8685.06348       2.47768784    
   4.57987785       1.89704800      -5.00000000       8685.06348       2.47768784    
   4.33012676       2.50000000      -4.00000000       11032.1533       2.43982291    
   4.33012676       2.50000000      -3.00000000       11032.1533       2.43982291    
   4.57987785       1.89704800      -3.00000000       11032.1533       2.43982291    
   4.57987785       1.89704800      -4.00000000       11032.1533       2.43982291    
   4.33012676       2.50000000      -3.00000000       13743.0098       2.42466068    
   4.33012676       2.50000000      -2.00000000       13743.0098       2.42466068    
   4.57987785       1.89704800      -2.00000000       13743.0098       2.42466068    
   4.57987785       1.89704800      -3.00000000       13743.0098       2.42466068    
   4.33012676       2.50000000      -2.00000000       16906.9922       2.42279887    
   4.33012676       2.50000000      -1.00000000       16906.9922       2.42279887    
   4.57987785       1.89704800      -1.00000000       16906.9922       2.42279887    
   4.57987785       1.89704800      -2.00000000       16906.9922       2.42279887    
   4.33012676       2.50000000      -1.00000000       20663.3848       2.42722297    
   4.33012676       2.50000000       0.00000000       20663.3848       2.42722297    
   4.57987785       1.89704800       0.00000000       20663.3848       2.42722297    
   4.57987785       1.89704800      -1.00000000       20663.3848       2.42722297    
   4.57987785       1.89704800      -10.0000000       1534.20605      -3.10301304    
   4.57987785       1.89704800      -9.00000000       1534.20605      -3.10301304    
   4.82962894       1.29409504      -9.00000000       1534.20605      -3.10301304    
   4.82962894       1.29409504      -10.0000000       1534.20605      -3.10301304    
   4.57987785       1.89704800      -9.00000000       2066.94971       3.13860440    
   4.57987785       1.89704800      -8.00000000       2066.94971       3.13860440    
   4.82962894       1.29409504      -8.00000000       2066.94971       3.13860440    
   4.82962894       1.29409504      -9.00000000       2066.94971       3.13860440    
   4.57987785       1.89704800      -8.00000000       2725.63501       2.87880063    
   4.57987785       1.89704800      -7.00000000       2725.63501       2.87880063    
   4.82962894       1.29409504      -7.00000000       2725.63501       2.87880063    
   4.82962894       1.29409504      -8.00000000       2725.63501       2.87880063    
   4.57987785       1.89704800      -7.00000000       3695.47559       2.67027783    
   4.57987785       1.89704800      -6.00000000       3695.47559       2.67027783    
   4.82962894       1.29409504      -6.00000000       3695.47559       2.67027783    
   4.82962894       1.29409504      -7.00000000       3695.47559       2.67027783    
   4.57987785       1.89704800      -6.00000000       4956.26465       2.53931022    
   4.57987785       1.89704800      -5.00000000       4956.26465       2.53931022    
   4.82962894       1.29409504      -5.00000000       4956.26465       2.53931022    
   4.82962894       1.29409504      -6.00000000       4956.26465       2.53931022    
   4.57987785       1.89704800      -5.00000000       6470.99512       2.46458793    
   4.57987785       1.89704800      -4.00000000       6470.99512       2.46458793    
   4.82962894       1.29409504      -4.00000000       6470.99512       2.46458793    
   4.82962894       1.29409504      -5.00000000       6470.99512       2.46458793    
   4.57987785       1.89704800      -4.00000000       8228.57617       2.42647052    
   4.57987785       1.89704800      -3.00000000       8228.57617       2.42647052    
   4.82962894       1.29409504      -3.00000000       8228.57617       2.42647052    
   4.82962894       1.29409504      -4.00000000       8228.57617       2.42647052    
   4.57987785       1.89704800      -3.00000000       10252.8652       2.41144538    
   4.57987785       1.89704800      -2.00000000       10252.8652       2.41144538    
   4.82962894       1.29409504      -2.00000000       10252.8652       2.41144538    
   4.82962894       1.29409504      -3.00000000       10252.8652       2.41144538    
   4.57987785       1.89704800      -2.00000000       12610.1064       2.40991855    
   4.57987785       1.89704800      -1.00000000       12610.1064       2.40991855    
   4.82962894       1.29409504      -1.00000000       12610.1064       2.40991855    
   4.82962894       1.29409504      -2.00000000       12610.1064       2.40991855    
   4.57987785       1.89704800      -1.00000000       15399.9023       2.41494203    
   4.57987785       1.89704800       0.00000000       15399.9023       2.41494203    
   4.82962894       1.29409504       0.00000000       15399.9023       2.41494203    
   4.82962894       1.29409504      -1.00000000       15399.9023       2.41494203    
   3.53553391       3.53553391      -10.0000000       3110.45020      -3.13534999    
   3.53553391       3.53553391      -9.00000000       3110.45020      -3.13534999    
   3.93283010       3.01776695      -9.00000000       3110.45020      -3.13534999    
   3.93283010       3.01776695      -10.0000000       3110.45020      -3.13534999    
   3.53553391       3.53553391      -9.00000000       4190.66113       3.12525582    
   3.53553391       3.53553391      -8.00000000       4190.66113       3.12525582    
   3.93283010       3.01776695      -8.00000000       4190.66113       3.12525582    
   3.93283010       3.01776695      -9.00000000       4190.66113       3.12525582    
   3.53553391       3.53553391      -8.00000000       5524.52100       2.87918377    
   3.53553391       3.53553391      -7.00000000       5524.52100       2.87918377    
   3.93283010       3.01776695      -7.00000000       5524.52100       2.87918377    
   3.93283010       3.01776695      -8.00000000       5524.52100       2.87918377    
   3.53553391       3.53553391      -7.00000000       7463.45801       2.67751479    
   3.53553391       3.53553391      -6.00000000       7463.45801       2.67751479    
   3.93283010       3.01776695      -6.00000000       7463.45801       2.67751479    
   3.93283010       3.01776695      -7.00000000       7463.45801       2.67751479    
   3.53553391       3.53553391      -6.00000000       9978.95117       2.54920602    
   3.53553391       3.53553391      -5.00000000       9978.95117       2.54920602    
   3.93283010       3.01776695      -5.00000000       9978.95117       2.54920602    
   3.93283010       3.01776695      -6.00000000       9978.95117       2.54920602    
   3.53553391       3.53553391      -5.00000000       13005.3711       2.47530222    
   3.53553391       3.53553391      -4.00000000       13005.3711       2.47530222    
   3.93283010       3.01776695      -4.00000000       13005.3711       2.47530222    
   3.93283010       3.01776695      -5.00000000       13005.3711       2.47530222    
   3.53553391       3.53553391      -4.00000000       16523.2188       2.43738914    
   3.53553391       3.53553391      -3.00000000       16523.2188       2.43738914    
   3.93283010       3.01776695      -3.00000000       16523.2188       2.43738914    
   3.93283010       3.01776695      -4.00000000       16523.2188       2.43738914    
   3.53553391       3.53553391      -3.00000000       20584.2246       2.42225242    
   3.53553391       3.53553391      -2.00000000       20584.2246       2.42225242    
   3.93283010       3.01776695      -2.00000000       20584.2246       2.42225242    
   3.93283010       3.01776695      -3.00000000       20584.2246       2.42225242    
   3.53553391       3.53553391      -2.00000000       25322.0664       2.42045116    
   3.53553391       3.53553391      -1.00000000       25322.0664       2.42045116    
   3.93283010       3.01776695      -1.00000000       25322.0664       2.42045116    
   3.93283010       3.01776695      -2.00000000       25322.0664       2.42045116    
   3.53553391       3.53553391      -1.00000000       30943.7852       2.42498589    
   3.53553391       3.53553391       0.00000000       30943.7852       2.42498589    
   3.93283010       3.01776695       0.00000000       30943.7852       2.42498589    
   3.93283010       3.01776695      -1.00000000       30943.7852       2.42498589    
   3.93283010       3.01776695      -10.0000000       2640.45557      -3.11439419    
   3.93283010       3.01776695      -9.00000000       2640.45557      -3.11439419    
   4.33012676       2.50000000      -9.00000000       2640.45557      -3.11439419    
   4.33012676       2.50000000      -10.0000000       2640.45557      -3.11439419    
   3.93283010       3.01776695      -9.00000000       3557.72070       3.13390541    
   3.93283010       3.01776695      -8.00000000       3557.72070       3.13390541    
   4.33012676       2.50000000      -8.00000000       3557.72070       3.13390541    
   4.33012676       2.50000000      -9.00000000       3557.72070       3.13390541    
   3.93283010       3.01776695      -8.00000000       4691.10107       2.87893558    
   3.93283010       3.01776695      -7.00000000       4691.10107       2.87893558    
   4.33012676       2.50000000      -7.00000000       4691.10107       2.87893558    
   4.33012676       2.50000000      -8.00000000       4691.10107       2.87893558    
   3.93283010       3.01776695      -7.00000000       6352.24316       2.67281890    
   3.93283010       3.01776695      -6.00000000       6352.24316       2.67281890    
   4.33012676       2.50000000      -6.00000000       6352.24316       2.67281890    
   4.33012676       2.50000000      -7.00000000       6352.24316       2.67281890    
   3.93283010       3.01776695      -6.00000000       8510.19336       2.54277825    
   3.93283010       3.01776695      -5.00000000       8510.19336       2.54277825    
   4.33012676       2.50000000      -5.00000000       8510.19336       2.54277825    
   4.33012676       2.50000000      -6.00000000       8510.19336       2.54277825    
   3.93283010       3.01776695      -5.00000000       11104.0859       2.46833849    
   3.93283010       3.01776695      -4.00000000       11104.0859       2.46833849    
   4.33012676       2.50000000      -4.00000000       11104.0859       2.46833849    
   4.33012676       2.50000000      -5.00000000       11104.0859       2.46833849    
   3.93283010       3.01776695      -4.00000000       14115.7139       2.43028951    
   3.93283010       3.01776695      -3.00000000       14115.7139       2.43028951    
   4.33012676       2.50000000      -3.00000000       14115.7139       2.43028951    
   4.33012676       2.50000000      -4.00000000       14115.7139       2.43028951    
   3.93283010       3.01776695      -3.00000000       17587.1309       2.41522503    
   3.93283010       3.01776695      -2.00000000       17587.1309       2.41522503    
   4.33012676       2.50000000      -2.00000000       17587.1309       2.41522503    
   4.33012676       2.50000000      -3.00000000       17587.1309       2.41522503    
   3.93283010       3.01776695      -2.00000000       21632.1914       2.41360378    
   3.93283010       3.01776695      -1.00000000       21632.1914       2.41360378    
   4.33012676       2.50000000      -1.00000000       21632.1914       2.41360378    
   4.33012676       2.50000000      -2.00000000       21632.1914       2.41360378    
   3.93283010       3.01776695      -1.00000000       26423.8594       2.41845608    
   3.93283010       3.01776695       0.00000000       26423.8594       2.41845608    
   4.33012676       2.50000000       0.00000000       26423.8594       2.41845608    
   4.33012676       2.50000000      -1.00000000       26423.8594       2.41845608    
   2.50000000       4.33012676      -10.0000000       3927.56006      -3.13157535    
   2.50000000       4.33012676      -9.00000000       3927.56006      -3.13157535    
   3.01776695       3.93283010      -9.00000000       3927.56006      -3.13157535    
   3.01776695       3.93283010      -10.0000000       3927.56006      -3.13157535    
   2.50000000       4.33012676      -9.00000000       5291.75684       3.12681460    
   2.50000000       4.33012676      -8.00000000       5291.75684       3.12681460    
   3.01776695       3.93283010      -8.00000000       5291.75684       3.12681460    
   3.01776695       3.93283010      -9.00000000       5291.75684       3.12681460    
   2.50000000       4.33012676      -8.00000000       6976.38281       2.87913871    
   2.50000000       4.33012676      -7.00000000       6976.38281       2.87913871    
   3.01776695       3.93283010      -7.00000000       6976.38281       2.87913871    
   3.01776695       3.93283010      -8.00000000       6976.38281       2.87913871    
   2.50000000       4.33012676      -7.00000000       9428.80371       2.67666674    
   2.50000000       4.33012676      -6.00000000       9428.80371       2.67666674    
   3.01776695       3.93283010      -6.00000000       9428.80371       2.67666674    
   3.01776695       3.93283010      -7.00000000       9428.80371       2.67666674    
   2.50000000       4.33012676      -6.00000000       12611.2393       2.54804349    
   2.50000000       4.33012676      -5.00000000       12611.2393       2.54804349    
   3.01776695       3.93283010      -5.00000000       12611.2393       2.54804349    
   3.01776695       3.93283010      -6.00000000       12611.2393       2.54804349    
   2.50000000       4.33012676      -5.00000000       16439.4258       2.47404170    
   2.50000000       4.33012676      -4.00000000       16439.4258       2.47404170    
   3.01776695       3.93283010      -4.00000000       16439.4258       2.47404170    
   3.01776695       3.93283010      -5.00000000       16439.4258       2.47404170    
   2.50000000       4.33012676      -4.00000000       20888.3047       2.43610287    
   2.50000000       4.33012676      -3.00000000       20888.3047       2.43610287    
   3.01776695       3.93283010      -3.00000000       20888.3047       2.43610287    
   3.01776695       3.93283010      -4.00000000       20888.3047       2.43610287    
   2.50000000       4.33012676      -3.00000000       26022.7246       2.42097950    
   2.50000000       4.33012676      -2.00000000       26022.7246       2.42097950    
   3.01776695       3.93283010      -2.00000000       26022.7246       2.42097950    
   3.01776695       3.93283010      -3.00000000       26022.7246       2.42097950    
   2.50000000       4.33012676      -2.00000000       32011.5547       2.41921115    
   2.50000000       4.33012676      -1.00000000       32011.5547       2.41921115    
   3.01776695       3.93283010      -1.00000000       32011.5547       2.41921115    
   3.01776695       3.93283010      -2.00000000       32011.5547       2.41921115    
   2.50000000       4.33012676      -1.00000000       39115.4961       2.42380381    
   2.50000000       4.33012676       0.00000000       39115.4961       2.42380381    
   3.01776695       3.93283010       0.00000000       39115.4961       2.42380381    
   3.01776695       3.93283010      -1.00000000       39115.4961       2.42380381    
   3.01776695       3.93283010      -10.0000000       3566.90137      -3.11929178    
   3.01776695       3.93283010      -9.00000000       3566.90137      -3.11929178    
   3.53553391       3.53553391      -9.00000000       3566.90137      -3.11929178    
   3.53553391       3.53553391      -10.0000000       3566.90137      -3.11929178    
   3.01776695       3.93283010      -9.00000000       4806.08203       3.13188505    
   3.01776695       3.93283010      -8.00000000       4806.08203       3.13188505    
   3.53553391       3.53553391      -8.00000000       4806.08203       3.13188505    
   3.53553391       3.53553391      -9.00000000       4806.08203       3.13188505    
   3.01776695       3.93283010      -8.00000000       6336.87500       2.87899375    
   3.01776695       3.93283010      -7.00000000       6336.87500       2.87899375    
   3.53553391       3.53553391      -7.00000000       6336.87500       2.87899375    
   3.53553391       3.53553391      -8.00000000       6336.87500       2.87899375    
   3.01776695       3.93283010      -7.00000000       8576.13965       2.67391348    
   3.01776695       3.93283010      -6.00000000       8576.13965       2.67391348    
   3.53553391       3.53553391      -6.00000000       8576.13965       2.67391348    
   3.53553391       3.53553391      -7.00000000       8576.13965       2.67391348    
   3.01776695       3.93283010      -6.00000000       11484.2129       2.54427409    
   3.01776695       3.93283010      -5.00000000       11484.2129       2.54427409    
   3.53553391       3.53553391      -5.00000000       11484.2129       2.54427409    
   3.53553391       3.53553391      -6.00000000       11484.2129       2.54427409    
   3.01776695       3.93283010      -5.00000000       14980.5059       2.46995807    
   3.01776695       3.93283010      -4.00000000       14980.5059       2.46995807    
   3.53553391       3.53553391      -4.00000000       14980.5059       2.46995807    
   3.53553391       3.53553391      -5.00000000       14980.5059       2.46995807    
   3.01776695       3.93283010      -4.00000000       19040.9629       2.43194032    
   3.01776695       3.93283010      -3.00000000       19040.9629       2.43194032    
   3.53553391       3.53553391      -3.00000000       19040.9629       2.43194032    
   3.53553391       3.53553391      -4.00000000       19040.9629       2.43194032    
   3.01776695       3.93283010      -3.00000000       23722.9609       2.41685915    
   3.01776695       3.93283010      -2.00000000       23722.9609       2.41685915    
   3.53553391       3.53553391      -2.00000000       23722.9609       2.41685915    
   3.53553391       3.53553391      -3.00000000       23722.9609       2.41685915    
   3.01776695       3.93283010      -2.00000000       29180.1973       2.41519594    
   3.01776695       3.93283010      -1.00000000       29180.1973       2.41519594    
   3.53553391       3.53553391      -1.00000000       29180.1973       2.41519594    
   3.53553391       3.53553391      -2.00000000       29180.1973       2.41519594    
   3.01776695       3.93283010      -1.00000000       35647.2344       2.41997576    
   3.01776695       3.93283010       0.00000000       35647.2344       2.41997576    
   3.53553391       3.53553391       0.00000000       35647.2344       2.41997576    
   3.53553391       3.53553391      -1.00000000       35647.2344       2.41997576    
   1.29409504       4.82962894      -10.0000000       4477.04590      -3.12895226    
   1.29409504       4.82962894      -9.00000000       4477.04590      -3.12895226    
   1.89704800       4.57987785      -9.00000000       4477.04590      -3.12895226    
   1.89704800       4.57987785      -10.0000000       4477.04590      -3.12895226    
   1.29409504       4.82962894      -9.00000000       6032.22900       3.12789702    
   1.29409504       4.82962894      -8.00000000       6032.22900       3.12789702    
   1.89704800       4.57987785      -8.00000000       6032.22900       3.12789702    
   1.89704800       4.57987785      -9.00000000       6032.22900       3.12789702    
   1.29409504       4.82962894      -8.00000000       7952.81250       2.87910819    
   1.29409504       4.82962894      -7.00000000       7952.81250       2.87910819    
   1.89704800       4.57987785      -7.00000000       7952.81250       2.87910819    
   1.89704800       4.57987785      -8.00000000       7952.81250       2.87910819    
   1.29409504       4.82962894      -7.00000000       10751.5986       2.67607832    
   1.29409504       4.82962894      -6.00000000       10751.5986       2.67607832    
   1.89704800       4.57987785      -6.00000000       10751.5986       2.67607832    
   1.89704800       4.57987785      -7.00000000       10751.5986       2.67607832    
   1.29409504       4.82962894      -6.00000000       14384.0938       2.54723716    
   1.29409504       4.82962894      -5.00000000       14384.0938       2.54723716    
   1.89704800       4.57987785      -5.00000000       14384.0938       2.54723716    
   1.89704800       4.57987785      -6.00000000       14384.0938       2.54723716    
   1.29409504       4.82962894      -5.00000000       18753.1699       2.47316813    
   1.29409504       4.82962894      -4.00000000       18753.1699       2.47316813    
   1.89704800       4.57987785      -4.00000000       18753.1699       2.47316813    
   1.89704800       4.57987785      -5.00000000       18753.1699       2.47316813    
   1.29409504       4.82962894      -4.00000000       23829.9121       2.43521190    
   1.29409504       4.82962894      -3.00000000       23829.9121       2.43521190    
   1.89704800       4.57987785      -3.00000000       23829.9121       2.43521190    