 VARIABLES="X" "Y" "Z" "abs(p) (Pa)" "angle(p) (rad)"
ZONE N=   1080,E =     600, F=FEPOINT, ET=QUADRILATERAL
   4.82962894       1.29409504      -10.0000000       2353.31763      0.520072043    
   4.82962894       1.29409504      -9.00000000       2353.31763      0.520072043    
   4.91481400      0.647047520      -9.00000000       2353.31763      0.520072043    
   4.91481400      0.647047520      -10.0000000       2353.31763      0.520072043    
   4.82962894       1.29409504      -9.00000000       3588.96118      0.531404316    
   4.82962894       1.29409504      -8.00000000       3588.96118      0.531404316    
   4.91481400      0.647047520      -8.00000000       3588.96118      0.531404316    
   4.91481400      0.647047520      -9.00000000       3588.96118      0.531404316    
   4.82962894       1.29409504      -8.00000000       4400.97314       6.75593689E-02
   4.82962894       1.29409504      -7.00000000       4400.97314       6.75593689E-02
   4.91481400      0.647047520      -7.00000000       4400.97314       6.75593689E-02
   4.91481400      0.647047520      -8.00000000       4400.97314       6.75593689E-02
   4.82962894       1.29409504      -7.00000000       6413.41113     -0.303992093    
   4.82962894       1.29409504      -6.00000000       6413.41113     -0.303992093    
   4.91481400      0.647047520      -6.00000000       6413.41113     -0.303992093    
   4.91481400      0.647047520      -7.00000000       6413.41113     -0.303992093    
   4.82962894       1.29409504      -6.00000000       9517.51660     -0.474311203    
   4.82962894       1.29409504      -5.00000000       9517.51660     -0.474311203    
   4.91481400      0.647047520      -5.00000000       9517.51660     -0.474311203    
   4.91481400      0.647047520      -6.00000000       9517.51660     -0.474311203    
   4.82962894       1.29409504      -5.00000000       13488.4902     -0.522725999    
   4.82962894       1.29409504      -4.00000000       13488.4902     -0.522725999    
   4.91481400      0.647047520      -4.00000000       13488.4902     -0.522725999    
   4.91481400      0.647047520      -5.00000000       13488.4902     -0.522725999    
   4.82962894       1.29409504      -4.00000000       18407.2305     -0.506707847    
   4.82962894       1.29409504      -3.00000000       18407.2305     -0.506707847    
   4.91481400      0.647047520      -3.00000000       18407.2305     -0.506707847    
   4.91481400      0.647047520      -4.00000000       18407.2305     -0.506707847    
   4.82962894       1.29409504      -3.00000000       24690.5410     -0.459009469    
   4.82962894       1.29409504      -2.00000000       24690.5410     -0.459009469    
   4.91481400      0.647047520      -2.00000000       24690.5410     -0.459009469    
   4.91481400      0.647047520      -3.00000000       24690.5410     -0.459009469    
   4.82962894       1.29409504      -2.00000000       33098.8164     -0.403472215    
   4.82962894       1.29409504      -1.00000000       33098.8164     -0.403472215    
   4.91481400      0.647047520      -1.00000000       33098.8164     -0.403472215    
   4.91481400      0.647047520      -2.00000000       33098.8164     -0.403472215    
   4.82962894       1.29409504      -1.00000000       44695.1523     -0.360078454    
   4.82962894       1.29409504       0.00000000       44695.1523     -0.360078454    
   4.91481400      0.647047520       0.00000000       44695.1523     -0.360078454    
   4.91481400      0.647047520      -1.00000000       44695.1523     -0.360078454    
   4.91481400      0.647047520      -10.0000000       2386.46899      0.515579045    
   4.91481400      0.647047520      -9.00000000       2386.46899      0.515579045    
   5.00000000       0.00000000      -9.00000000       2386.46899      0.515579045    
   5.00000000       0.00000000      -10.0000000       2386.46899      0.515579045    
   4.91481400      0.647047520      -9.00000000       3645.12793      0.529776156    
   4.91481400      0.647047520      -8.00000000       3645.12793      0.529776156    
   5.00000000       0.00000000      -8.00000000       3645.12793      0.529776156    
   5.00000000       0.00000000      -9.00000000       3645.12793      0.529776156    
   4.91481400      0.647047520      -8.00000000       4474.11816       6.76131621E-02
   4.91481400      0.647047520      -7.00000000       4474.11816       6.76131621E-02
   5.00000000       0.00000000      -7.00000000       4474.11816       6.76131621E-02
   5.00000000       0.00000000      -8.00000000       4474.11816       6.76131621E-02
   4.91481400      0.647047520      -7.00000000       6517.74805     -0.302907765    
   4.91481400      0.647047520      -6.00000000       6517.74805     -0.302907765    
   5.00000000       0.00000000      -6.00000000       6517.74805     -0.302907765    
   5.00000000       0.00000000      -7.00000000       6517.74805     -0.302907765    
   4.91481400      0.647047520      -6.00000000       9668.94629     -0.472961843    
   4.91481400      0.647047520      -5.00000000       9668.94629     -0.472961843    
   5.00000000       0.00000000      -5.00000000       9668.94629     -0.472961843    
   5.00000000       0.00000000      -6.00000000       9668.94629     -0.472961843    
   4.91481400      0.647047520      -5.00000000       13701.6533     -0.521341383    
   4.91481400      0.647047520      -4.00000000       13701.6533     -0.521341383    
   5.00000000       0.00000000      -4.00000000       13701.6533     -0.521341383    
   5.00000000       0.00000000      -5.00000000       13701.6533     -0.521341383    
   4.91481400      0.647047520      -4.00000000       18698.7871     -0.505338073    
   4.91481400      0.647047520      -3.00000000       18698.7871     -0.505338073    
   5.00000000       0.00000000      -3.00000000       18698.7871     -0.505338073    
   5.00000000       0.00000000      -4.00000000       18698.7871     -0.505338073    
   4.91481400      0.647047520      -3.00000000       25084.4902     -0.457699597    
   4.91481400      0.647047520      -2.00000000       25084.4902     -0.457699597    
   5.00000000       0.00000000      -2.00000000       25084.4902     -0.457699597    
   5.00000000       0.00000000      -3.00000000       25084.4902     -0.457699597    
   4.91481400      0.647047520      -2.00000000       33631.3828     -0.402266353    
   4.91481400      0.647047520      -1.00000000       33631.3828     -0.402266353    
   5.00000000       0.00000000      -1.00000000       33631.3828     -0.402266353    
   5.00000000       0.00000000      -2.00000000       33631.3828     -0.402266353    
   4.91481400      0.647047520      -1.00000000       45420.0156     -0.359020561    
   4.91481400      0.647047520       0.00000000       45420.0156     -0.359020561    
   5.00000000       0.00000000       0.00000000       45420.0156     -0.359020561    
   5.00000000       0.00000000      -1.00000000       45420.0156     -0.359020561    
   4.33012676       2.50000000      -10.0000000       2159.84302      0.525038421    
   4.33012676       2.50000000      -9.00000000       2159.84302      0.525038421    
   4.57987785       1.89704800      -9.00000000       2159.84302      0.525038421    
   4.57987785       1.89704800      -10.0000000       2159.84302      0.525038421    
   4.33012676       2.50000000      -9.00000000       3288.22266      0.533209801    
   4.33012676       2.50000000      -8.00000000       3288.22266      0.533209801    
   4.57987785       1.89704800      -8.00000000       3288.22266      0.533209801    
   4.57987785       1.89704800      -9.00000000       3288.22266      0.533209801    
   4.33012676       2.50000000      -8.00000000       4027.91162       6.74987063E-02
   4.33012676       2.50000000      -7.00000000       4027.91162       6.74987063E-02
   4.57987785       1.89704800      -7.00000000       4027.91162       6.74987063E-02
   4.57987785       1.89704800      -8.00000000       4027.91162       6.74987063E-02
   4.33012676       2.50000000      -7.00000000       5872.01709     -0.305195898    
   4.33012676       2.50000000      -6.00000000       5872.01709     -0.305195898    
   4.57987785       1.89704800      -6.00000000       5872.01709     -0.305195898    
   4.57987785       1.89704800      -7.00000000       5872.01709     -0.305195898    
   4.33012676       2.50000000      -6.00000000       8717.50195     -0.475808173    
   4.33012676       2.50000000      -5.00000000       8717.50195     -0.475808173    
   4.57987785       1.89704800      -5.00000000       8717.50195     -0.475808173    
   4.57987785       1.89704800      -6.00000000       8717.50195     -0.475808173    
   4.33012676       2.50000000      -5.00000000       12356.1406     -0.524262488    
   4.33012676       2.50000000      -4.00000000       12356.1406     -0.524262488    
   4.57987785       1.89704800      -4.00000000       12356.1406     -0.524262488    
   4.57987785       1.89704800      -5.00000000       12356.1406     -0.524262488    
   4.33012676       2.50000000      -4.00000000       16861.2793     -0.508227766    
   4.33012676       2.50000000      -3.00000000       16861.2793     -0.508227766    
   4.57987785       1.89704800      -3.00000000       16861.2793     -0.508227766    
   4.57987785       1.89704800      -4.00000000       16861.2793     -0.508227766    
   4.33012676       2.50000000      -3.00000000       22614.0273     -0.460463256    
   4.33012676       2.50000000      -2.00000000       22614.0273     -0.460463256    
   4.57987785       1.89704800      -2.00000000       22614.0273     -0.460463256    
   4.57987785       1.89704800      -3.00000000       22614.0273     -0.460463256    
   4.33012676       2.50000000      -2.00000000       30310.7188     -0.404810429    
   4.33012676       2.50000000      -1.00000000       30310.7188     -0.404810429    
   4.57987785       1.89704800      -1.00000000       30310.7188     -0.404810429    
   4.57987785       1.89704800      -2.00000000       30310.7188     -0.404810429    
   4.33012676       2.50000000      -1.00000000       40924.4766     -0.361253291    
   4.33012676       2.50000000       0.00000000       40924.4766     -0.361253291    
   4.57987785       1.89704800       0.00000000       40924.4766     -0.361253291    
   4.57987785       1.89704800      -1.00000000       40924.4766     -0.361253291    
   4.57987785       1.89704800      -10.0000000       2257.03491      0.510893703    
   4.57987785       1.89704800      -9.00000000       2257.03491      0.510893703    
   4.82962894       1.29409504      -9.00000000       2257.03491      0.510893703    
   4.82962894       1.29409504      -10.0000000       2257.03491      0.510893703    
   4.57987785       1.89704800      -9.00000000       3452.89478      0.528083563    
   4.57987785       1.89704800      -8.00000000       3452.89478      0.528083563    
   4.82962894       1.29409504      -8.00000000       3452.89478      0.528083563    
   4.82962894       1.29409504      -9.00000000       3452.89478      0.528083563    
   4.57987785       1.89704800      -8.00000000       4242.35840       6.76702634E-02
   4.57987785       1.89704800      -7.00000000       4242.35840       6.76702634E-02
   4.82962894       1.29409504      -7.00000000       4242.35840       6.76702634E-02
   4.82962894       1.29409504      -8.00000000       4242.35840       6.76702634E-02
   4.57987785       1.89704800      -7.00000000       6177.92578     -0.301782280    
   4.57987785       1.89704800      -6.00000000       6177.92578     -0.301782280    
   4.82962894       1.29409504      -6.00000000       6177.92578     -0.301782280    
   4.82962894       1.29409504      -7.00000000       6177.92578     -0.301782280    
   4.57987785       1.89704800      -6.00000000       9161.46875     -0.471560061    
   4.57987785       1.89704800      -5.00000000       9161.46875     -0.471560061    
   4.82962894       1.29409504      -5.00000000       9161.46875     -0.471560061    
   4.82962894       1.29409504      -6.00000000       9161.46875     -0.471560061    
   4.57987785       1.89704800      -5.00000000       12981.0977     -0.519902349    
   4.57987785       1.89704800      -4.00000000       12981.0977     -0.519902349    
   4.82962894       1.29409504      -4.00000000       12981.0977     -0.519902349    
   4.82962894       1.29409504      -5.00000000       12981.0977     -0.519902349    
   4.57987785       1.89704800      -4.00000000       17716.0957     -0.503914952    
   4.57987785       1.89704800      -3.00000000       17716.0957     -0.503914952    
   4.82962894       1.29409504      -3.00000000       17716.0957     -0.503914952    
   4.82962894       1.29409504      -4.00000000       17716.0957     -0.503914952    
   4.57987785       1.89704800      -3.00000000       23769.0039     -0.456338733    
   4.57987785       1.89704800      -2.00000000       23769.0039     -0.456338733    
   4.82962894       1.29409504      -2.00000000       23769.0039     -0.456338733    
   4.82962894       1.29409504      -3.00000000       23769.0039     -0.456338733    
   4.57987785       1.89704800      -2.00000000       31872.0527     -0.401014209    
   4.57987785       1.89704800      -1.00000000       31872.0527     -0.401014209    
   4.82962894       1.29409504      -1.00000000       31872.0527     -0.401014209    
   4.82962894       1.29409504      -2.00000000       31872.0527     -0.401014209    
   4.57987785       1.89704800      -1.00000000       43049.6016     -0.357922196    
   4.57987785       1.89704800       0.00000000       43049.6016     -0.357922196    
   4.82962894       1.29409504       0.00000000       43049.6016     -0.357922196    
   4.82962894       1.29409504      -1.00000000       43049.6016     -0.357922196    
   3.53553391       3.53553391      -10.0000000       1819.25220      0.531467736    
   3.53553391       3.53553391      -9.00000000       1819.25220      0.531467736    
   3.93283010       3.01776695      -9.00000000       1819.25220      0.531467736    
   3.93283010       3.01776695      -10.0000000       1819.25220      0.531467736    
   3.53553391       3.53553391      -9.00000000       2763.41504      0.535555601    
   3.53553391       3.53553391      -8.00000000       2763.41504      0.535555601    
   3.93283010       3.01776695      -8.00000000       2763.41504      0.535555601    
   3.93283010       3.01776695      -9.00000000       2763.41504      0.535555601    
   3.53553391       3.53553391      -8.00000000       3380.35303       6.74201697E-02
   3.53553391       3.53553391      -7.00000000       3380.35303       6.74201697E-02
   3.93283010       3.01776695      -7.00000000       3380.35303       6.74201697E-02
   3.93283010       3.01776695      -8.00000000       3380.35303       6.74201697E-02
   3.53553391       3.53553391      -7.00000000       4930.46680     -0.306761563    
   3.53553391       3.53553391      -6.00000000       4930.46680     -0.306761563    
   3.93283010       3.01776695      -6.00000000       4930.46680     -0.306761563    
   3.93283010       3.01776695      -7.00000000       4930.46680     -0.306761563    
   3.53553391       3.53553391      -6.00000000       7323.43408     -0.477753460    
   3.53553391       3.53553391      -5.00000000       7323.43408     -0.477753460    
   3.93283010       3.01776695      -5.00000000       7323.43408     -0.477753460    
   3.93283010       3.01776695      -6.00000000       7323.43408     -0.477753460    
   3.53553391       3.53553391      -5.00000000       10381.7744     -0.526257992    
   3.53553391       3.53553391      -4.00000000       10381.7744     -0.526257992    
   3.93283010       3.01776695      -4.00000000       10381.7744     -0.526257992    
   3.93283010       3.01776695      -5.00000000       10381.7744     -0.526257992    
   3.53553391       3.53553391      -4.00000000       14166.3145     -0.510201335    
   3.53553391       3.53553391      -3.00000000       14166.3145     -0.510201335    
   3.93283010       3.01776695      -3.00000000       14166.3145     -0.510201335    
   3.93283010       3.01776695      -4.00000000       14166.3145     -0.510201335    
   3.53553391       3.53553391      -3.00000000       18996.4766     -0.462351918    
   3.53553391       3.53553391      -2.00000000       18996.4766     -0.462351918    
   3.93283010       3.01776695      -2.00000000       18996.4766     -0.462351918    
   3.93283010       3.01776695      -3.00000000       18996.4766     -0.462351918    
   3.53553391       3.53553391      -2.00000000       25457.0234     -0.406550437    
   3.53553391       3.53553391      -1.00000000       25457.0234     -0.406550437    
   3.93283010       3.01776695      -1.00000000       25457.0234     -0.406550437    
   3.93283010       3.01776695      -2.00000000       25457.0234     -0.406550437    
   3.53553391       3.53553391      -1.00000000       34364.9219     -0.362780392    
   3.53553391       3.53553391       0.00000000       34364.9219     -0.362780392    
   3.93283010       3.01776695       0.00000000       34364.9219     -0.362780392    
   3.93283010       3.01776695      -1.00000000       34364.9219     -0.362780392    
   3.93283010       3.01776695      -10.0000000       1973.84265      0.505226374    
   3.93283010       3.01776695      -9.00000000       1973.84265      0.505226374    
   4.33012676       2.50000000      -9.00000000       1973.84265      0.505226374    
   4.33012676       2.50000000      -10.0000000       1973.84265      0.505226374    
   3.93283010       3.01776695      -9.00000000       3025.36548      0.526044607    
   3.93283010       3.01776695      -8.00000000       3025.36548      0.526044607    
   4.33012676       2.50000000      -8.00000000       3025.36548      0.526044607    
   4.33012676       2.50000000      -9.00000000       3025.36548      0.526044607    
   3.93283010       3.01776695      -8.00000000       3721.48730       6.77381903E-02
   3.93283010       3.01776695      -7.00000000       3721.48730       6.77381903E-02
   4.33012676       2.50000000      -7.00000000       3721.48730       6.77381903E-02
   4.33012676       2.50000000      -8.00000000       3721.48730       6.77381903E-02
   3.93283010       3.01776695      -7.00000000       5417.09180     -0.300427824    
   3.93283010       3.01776695      -6.00000000       5417.09180     -0.300427824    
   4.33012676       2.50000000      -6.00000000       5417.09180     -0.300427824    
   4.33012676       2.50000000      -7.00000000       5417.09180     -0.300427824    
   3.93283010       3.01776695      -6.00000000       8029.67480     -0.469872445    
   3.93283010       3.01776695      -5.00000000       8029.67480     -0.469872445    
   4.33012676       2.50000000      -5.00000000       8029.67480     -0.469872445    
   4.33012676       2.50000000      -6.00000000       8029.67480     -0.469872445    
   3.93283010       3.01776695      -5.00000000       11375.9424     -0.518168986    
   3.93283010       3.01776695      -4.00000000       11375.9424     -0.518168986    
   4.33012676       2.50000000      -4.00000000       11375.9424     -0.518168986    
   4.33012676       2.50000000      -5.00000000       11375.9424     -0.518168986    
   3.93283010       3.01776695      -4.00000000       15526.1260     -0.502200842    
   3.93283010       3.01776695      -3.00000000       15526.1260     -0.502200842    
   4.33012676       2.50000000      -3.00000000       15526.1260     -0.502200842    
   4.33012676       2.50000000      -4.00000000       15526.1260     -0.502200842    
   3.93283010       3.01776695      -3.00000000       20833.7617     -0.454700679    
   3.93283010       3.01776695      -2.00000000       20833.7617     -0.454700679    
   4.33012676       2.50000000      -2.00000000       20833.7617     -0.454700679    
   4.33012676       2.50000000      -3.00000000       20833.7617     -0.454700679    
   3.93283010       3.01776695      -2.00000000       27940.7637     -0.399507076    
   3.93283010       3.01776695      -1.00000000       27940.7637     -0.399507076    
   4.33012676       2.50000000      -1.00000000       27940.7637     -0.399507076    
   4.33012676       2.50000000      -2.00000000       27940.7637     -0.399507076    
   3.93283010       3.01776695      -1.00000000       37745.5117     -0.356600702    
   3.93283010       3.01776695       0.00000000       37745.5117     -0.356600702    
   4.33012676       2.50000000       0.00000000       37745.5117     -0.356600702    
   4.33012676       2.50000000      -1.00000000       37745.5117     -0.356600702    
   2.50000000       4.33012676      -10.0000000       1354.78967      0.541708350    
   2.50000000       4.33012676      -9.00000000       1354.78967      0.541708350    
   3.01776695       3.93283010      -9.00000000       1354.78967      0.541708350    
   3.01776695       3.93283010      -10.0000000       1354.78967      0.541708350    
   2.50000000       4.33012676      -9.00000000       2050.30103      0.539315343    
   2.50000000       4.33012676      -8.00000000       2050.30103      0.539315343    
   3.01776695       3.93283010      -8.00000000       2050.30103      0.539315343    
   3.01776695       3.93283010      -9.00000000       2050.30103      0.539315343    
   2.50000000       4.33012676      -8.00000000       2502.42944       6.72929659E-02
   2.50000000       4.33012676      -7.00000000       2502.42944       6.72929659E-02
   3.01776695       3.93283010      -7.00000000       2502.42944       6.72929659E-02
   3.01776695       3.93283010      -8.00000000       2502.42944       6.72929659E-02
   2.50000000       4.33012676      -7.00000000       3652.93018     -0.309277982    
   2.50000000       4.33012676      -6.00000000       3652.93018     -0.309277982    
   3.01776695       3.93283010      -6.00000000       3652.93018     -0.309277982    
   3.01776695       3.93283010      -7.00000000       3652.93018     -0.309277982    
   2.50000000       4.33012676      -6.00000000       5430.32422     -0.480875999    
   2.50000000       4.33012676      -5.00000000       5430.32422     -0.480875999    
   3.01776695       3.93283010      -5.00000000       5430.32422     -0.480875999    
   3.01776695       3.93283010      -6.00000000       5430.32422     -0.480875999    
   2.50000000       4.33012676      -5.00000000       7699.96875     -0.529460132    
   2.50000000       4.33012676      -4.00000000       7699.96875     -0.529460132    
   3.01776695       3.93283010      -4.00000000       7699.96875     -0.529460132    
   3.01776695       3.93283010      -5.00000000       7699.96875     -0.529460132    
   2.50000000       4.33012676      -4.00000000       10506.0166     -0.513370037    
   2.50000000       4.33012676      -3.00000000       10506.0166     -0.513370037    
   3.01776695       3.93283010      -3.00000000       10506.0166     -0.513370037    
   3.01776695       3.93283010      -4.00000000       10506.0166     -0.513370037    
   2.50000000       4.33012676      -3.00000000       14084.4404     -0.465384692    
   2.50000000       4.33012676      -2.00000000       14084.4404     -0.465384692    
   3.01776695       3.93283010      -2.00000000       14084.4404     -0.465384692    
   3.01776695       3.93283010      -3.00000000       14084.4404     -0.465384692    
   2.50000000       4.33012676      -2.00000000       18868.6094     -0.409344643    
   2.50000000       4.33012676      -1.00000000       18868.6094     -0.409344643    
   3.01776695       3.93283010      -1.00000000       18868.6094     -0.409344643    
   3.01776695       3.93283010      -2.00000000       18868.6094     -0.409344643    
   2.50000000       4.33012676      -1.00000000       25463.5723     -0.365235388    
   2.50000000       4.33012676       0.00000000       25463.5723     -0.365235388    
   3.01776695       3.93283010       0.00000000       25463.5723     -0.365235388    
   3.01776695       3.93283010      -1.00000000       25463.5723     -0.365235388    
   3.01776695       3.93283010      -10.0000000       1556.22546      0.497007519    
   3.01776695       3.93283010      -9.00000000       1556.22546      0.497007519    
   3.53553391       3.53553391      -9.00000000       1556.22546      0.497007519    
   3.53553391       3.53553391      -10.0000000       1556.22546      0.497007519    
   3.01776695       3.93283010      -9.00000000       2391.67676      0.523099244    
   3.01776695       3.93283010      -8.00000000       2391.67676      0.523099244    
   3.53553391       3.53553391      -8.00000000       2391.67676      0.523099244    
   3.53553391       3.53553391      -9.00000000       2391.67676      0.523099244    
   3.01776695       3.93283010      -8.00000000       2947.00513       6.78354800E-02
   3.01776695       3.93283010      -7.00000000       2947.00513       6.78354800E-02
   3.53553391       3.53553391      -7.00000000       2947.00513       6.78354800E-02
   3.53553391       3.53553391      -8.00000000       2947.00513       6.78354800E-02
   3.01776695       3.93283010      -7.00000000       4287.10547     -0.298475415    
   3.01776695       3.93283010      -6.00000000       4287.10547     -0.298475415    
   3.53553391       3.53553391      -6.00000000       4287.10547     -0.298475415    
   3.53553391       3.53553391      -7.00000000       4287.10547     -0.298475415    
   3.01776695       3.93283010      -6.00000000       6350.70850     -0.467436761    
   3.01776695       3.93283010      -5.00000000       6350.70850     -0.467436761    
   3.53553391       3.53553391      -5.00000000       6350.70850     -0.467436761    
   3.53553391       3.53553391      -6.00000000       6350.70850     -0.467436761    
   3.01776695       3.93283010      -5.00000000       8995.56738     -0.515667081    
   3.01776695       3.93283010      -4.00000000       8995.56738     -0.515667081    
   3.53553391       3.53553391      -4.00000000       8995.56738     -0.515667081    
   3.53553391       3.53553391      -5.00000000       8995.56738     -0.515667081    
   3.01776695       3.93283010      -4.00000000       12278.1406     -0.499727041    
   3.01776695       3.93283010      -3.00000000       12278.1406     -0.499727041    
   3.53553391       3.53553391      -3.00000000       12278.1406     -0.499727041    
   3.53553391       3.53553391      -4.00000000       12278.1406     -0.499727041    
   3.01776695       3.93283010      -3.00000000       16478.7969     -0.452336788    
   3.01776695       3.93283010      -2.00000000       16478.7969     -0.452336788    
   3.53553391       3.53553391      -2.00000000       16478.7969     -0.452336788    
   3.53553391       3.53553391      -3.00000000       16478.7969     -0.452336788    
   3.01776695       3.93283010      -2.00000000       22105.4336     -0.397333443    
   3.01776695       3.93283010      -1.00000000       22105.4336     -0.397333443    
   3.53553391       3.53553391      -1.00000000       22105.4336     -0.397333443    
   3.53553391       3.53553391      -2.00000000       22105.4336     -0.397333443    
   3.01776695       3.93283010      -1.00000000       29869.1973     -0.354695588    
   3.01776695       3.93283010       0.00000000       29869.1973     -0.354695588    
   3.53553391       3.53553391       0.00000000       29869.1973     -0.354695588    
   3.53553391       3.53553391      -1.00000000       29869.1973     -0.354695588    
   1.29409504       4.82962894      -10.0000000       798.312134      0.565046310    
   1.29409504       4.82962894      -9.00000000       798.312134      0.565046310    
   1.89704800       4.57987785      -9.00000000       798.312134      0.565046310    
   1.89704800       4.57987785      -10.0000000       798.312134      0.565046310    
   1.29409504       4.82962894      -9.00000000       1197.52991      0.547989964    
   1.29409504       4.82962894      -8.00000000       1197.52991      0.547989964    
   1.89704800       4.57987785      -8.00000000       1197.52991      0.547989964    
   1.89704800       4.57987785      -9.00000000       1197.52991      0.547989964    
   1.29409504       4.82962894      -8.00000000       1453.96899       6.69988617E-02
   1.29409504       4.82962894      -7.00000000       1453.96899       6.69988617E-02
   1.89704800       4.57987785      -7.00000000       1453.96899       6.69988617E-02
   1.89704800       4.57987785      -8.00000000       1453.96899       6.69988617E-02
   1.29409504       4.82962894      -7.00000000       2126.50366     -0.315113097    
   1.29409504       4.82962894      -6.00000000       2126.50366     -0.315113097    
   1.89704800       4.57987785      -6.00000000       2126.50366     -0.315113097    
   1.89704800       4.57987785      -7.00000000       2126.50366     -0.315113097    
   1.29409504       4.82962894      -6.00000000       3167.26465     -0.488095999    
   1.29409504       4.82962894      -5.00000000       3167.26465     -0.488095999    
   1.89704800       4.57987785      -5.00000000       3167.26465     -0.488095999    
   1.89704800       4.57987785      -6.00000000       3167.26465     -0.488095999    
   1.29409504       4.82962894      -5.00000000       4493.59912     -0.536858439    
   1.29409504       4.82962894      -4.00000000       4493.59912     -0.536858439    
   1.89704800       4.57987785      -4.00000000       4493.59912     -0.536858439    
   1.89704800       4.57987785      -5.00000000       4493.59912     -0.536858439    
   1.29409504       4.82962894      -4.00000000       6129.98828     -0.520691216    
   1.29409504       4.82962894      -3.00000000       6129.98828     -0.520691216    
   1.89704800       4.57987785      -3.00000000       6129.98828     -0.520691216    