 VARIABLES="X" "Y" "Z" "abs(p) (Pa)" "angle(p) (rad)"
ZONE N=   1080,E =     600, F=FEPOINT, ET=QUADRILATERAL
   4.82962894       1.29409504      -10.0000000       47.3171844       1.57079661    
   4.82962894       1.29409504      -9.00000000       47.3171844       1.57079661    
   4.91481400      0.647047520      -9.00000000       47.3171844       1.57079661    
   4.91481400      0.647047520      -10.0000000       47.3171844       1.57079661    
   4.82962894       1.29409504      -9.00000000       48.3894424       1.57079637    
   4.82962894       1.29409504      -8.00000000       48.3894424       1.57079637    
   4.91481400      0.647047520      -8.00000000       48.3894424       1.57079637    
   4.91481400      0.647047520      -9.00000000       48.3894424       1.57079637    
   4.82962894       1.29409504      -8.00000000       48.3956184       1.57079697    
   4.82962894       1.29409504      -7.00000000       48.3956184       1.57079697    
   4.91481400      0.647047520      -7.00000000       48.3956184       1.57079697    
   4.91481400      0.647047520      -8.00000000       48.3956184       1.57079697    
   4.82962894       1.29409504      -7.00000000       48.4035225       1.57079697    
   4.82962894       1.29409504      -6.00000000       48.4035225       1.57079697    
   4.91481400      0.647047520      -6.00000000       48.4035225       1.57079697    
   4.91481400      0.647047520      -7.00000000       48.4035225       1.57079697    
   4.82962894       1.29409504      -6.00000000       48.3848991       1.57079685    
   4.82962894       1.29409504      -5.00000000       48.3848991       1.57079685    
   4.91481400      0.647047520      -5.00000000       48.3848991       1.57079685    
   4.91481400      0.647047520      -6.00000000       48.3848991       1.57079685    
   4.82962894       1.29409504      -5.00000000       48.3844795       1.57079685    
   4.82962894       1.29409504      -4.00000000       48.3844795       1.57079685    
   4.91481400      0.647047520      -4.00000000       48.3844795       1.57079685    
   4.91481400      0.647047520      -5.00000000       48.3844795       1.57079685    
   4.82962894       1.29409504      -4.00000000       48.4202766       1.57079697    
   4.82962894       1.29409504      -3.00000000       48.4202766       1.57079697    
   4.91481400      0.647047520      -3.00000000       48.4202766       1.57079697    
   4.91481400      0.647047520      -4.00000000       48.4202766       1.57079697    
   4.82962894       1.29409504      -3.00000000       48.4022903       1.57079661    
   4.82962894       1.29409504      -2.00000000       48.4022903       1.57079661    
   4.91481400      0.647047520      -2.00000000       48.4022903       1.57079661    
   4.91481400      0.647047520      -3.00000000       48.4022903       1.57079661    
   4.82962894       1.29409504      -2.00000000       48.4052582       1.57079661    
   4.82962894       1.29409504      -1.00000000       48.4052582       1.57079661    
   4.91481400      0.647047520      -1.00000000       48.4052582       1.57079661    
   4.91481400      0.647047520      -2.00000000       48.4052582       1.57079661    
   4.82962894       1.29409504      -1.00000000       48.1766052       1.57079709    
   4.82962894       1.29409504       0.00000000       48.1766052       1.57079709    
   4.91481400      0.647047520       0.00000000       48.1766052       1.57079709    
   4.91481400      0.647047520      -1.00000000       48.1766052       1.57079709    
   4.91481400      0.647047520      -10.0000000       47.3180542      -1.57079601    
   4.91481400      0.647047520      -9.00000000       47.3180542      -1.57079601    
   5.00000000       0.00000000      -9.00000000       47.3180542      -1.57079601    
   5.00000000       0.00000000      -10.0000000       47.3180542      -1.57079601    
   4.91481400      0.647047520      -9.00000000       48.3904953      -1.57079577    
   4.91481400      0.647047520      -8.00000000       48.3904953      -1.57079577    
   5.00000000       0.00000000      -8.00000000       48.3904953      -1.57079577    
   5.00000000       0.00000000      -9.00000000       48.3904953      -1.57079577    
   4.91481400      0.647047520      -8.00000000       48.3964958      -1.57079601    
   4.91481400      0.647047520      -7.00000000       48.3964958      -1.57079601    
   5.00000000       0.00000000      -7.00000000       48.3964958      -1.57079601    
   5.00000000       0.00000000      -8.00000000       48.3964958      -1.57079601    
   4.91481400      0.647047520      -7.00000000       48.4044685      -1.57079589    
   4.91481400      0.647047520      -6.00000000       48.4044685      -1.57079589    
   5.00000000       0.00000000      -6.00000000       48.4044685      -1.57079589    
   5.00000000       0.00000000      -7.00000000       48.4044685      -1.57079589    
   4.91481400      0.647047520      -6.00000000       48.3858185      -1.57079589    
   4.91481400      0.647047520      -5.00000000       48.3858185      -1.57079589    
   5.00000000       0.00000000      -5.00000000       48.3858185      -1.57079589    
   5.00000000       0.00000000      -6.00000000       48.3858185      -1.57079589    
   4.91481400      0.647047520      -5.00000000       48.3855820      -1.57079601    
   4.91481400      0.647047520      -4.00000000       48.3855820      -1.57079601    
   5.00000000       0.00000000      -4.00000000       48.3855820      -1.57079601    
   5.00000000       0.00000000      -5.00000000       48.3855820      -1.57079601    
   4.91481400      0.647047520      -4.00000000       48.4213982      -1.57079625    
   4.91481400      0.647047520      -3.00000000       48.4213982      -1.57079625    
   5.00000000       0.00000000      -3.00000000       48.4213982      -1.57079625    
   5.00000000       0.00000000      -4.00000000       48.4213982      -1.57079625    
   4.91481400      0.647047520      -3.00000000       48.4032707      -1.57079661    
   4.91481400      0.647047520      -2.00000000       48.4032707      -1.57079661    
   5.00000000       0.00000000      -2.00000000       48.4032707      -1.57079661    
   5.00000000       0.00000000      -3.00000000       48.4032707      -1.57079661    
   4.91481400      0.647047520      -2.00000000       48.4061546      -1.57079661    
   4.91481400      0.647047520      -1.00000000       48.4061546      -1.57079661    
   5.00000000       0.00000000      -1.00000000       48.4061546      -1.57079661    
   5.00000000       0.00000000      -2.00000000       48.4061546      -1.57079661    
   4.91481400      0.647047520      -1.00000000       48.1774940      -1.57079601    
   4.91481400      0.647047520       0.00000000       48.1774940      -1.57079601    
   5.00000000       0.00000000       0.00000000       48.1774940      -1.57079601    
   5.00000000       0.00000000      -1.00000000       48.1774940      -1.57079601    
   4.33012676       2.50000000      -10.0000000       47.3176727       1.57079685    
   4.33012676       2.50000000      -9.00000000       47.3176727       1.57079685    
   4.57987785       1.89704800      -9.00000000       47.3176727       1.57079685    
   4.57987785       1.89704800      -10.0000000       47.3176727       1.57079685    
   4.33012676       2.50000000      -9.00000000       48.3900337       1.57079673    
   4.33012676       2.50000000      -8.00000000       48.3900337       1.57079673    
   4.57987785       1.89704800      -8.00000000       48.3900337       1.57079673    
   4.57987785       1.89704800      -9.00000000       48.3900337       1.57079673    
   4.33012676       2.50000000      -8.00000000       48.3960724       1.57079661    
   4.33012676       2.50000000      -7.00000000       48.3960724       1.57079661    
   4.57987785       1.89704800      -7.00000000       48.3960724       1.57079661    
   4.57987785       1.89704800      -8.00000000       48.3960724       1.57079661    
   4.33012676       2.50000000      -7.00000000       48.4040298       1.57079685    
   4.33012676       2.50000000      -6.00000000       48.4040298       1.57079685    
   4.57987785       1.89704800      -6.00000000       48.4040298       1.57079685    
   4.57987785       1.89704800      -7.00000000       48.4040298       1.57079685    
   4.33012676       2.50000000      -6.00000000       48.3854256       1.57079661    
   4.33012676       2.50000000      -5.00000000       48.3854256       1.57079661    
   4.57987785       1.89704800      -5.00000000       48.3854256       1.57079661    
   4.57987785       1.89704800      -6.00000000       48.3854256       1.57079661    
   4.33012676       2.50000000      -5.00000000       48.3851089       1.57079637    
   4.33012676       2.50000000      -4.00000000       48.3851089       1.57079637    
   4.57987785       1.89704800      -4.00000000       48.3851089       1.57079637    
   4.57987785       1.89704800      -5.00000000       48.3851089       1.57079637    
   4.33012676       2.50000000      -4.00000000       48.4209518       1.57079685    
   4.33012676       2.50000000      -3.00000000       48.4209518       1.57079685    
   4.57987785       1.89704800      -3.00000000       48.4209518       1.57079685    
   4.57987785       1.89704800      -4.00000000       48.4209518       1.57079685    
   4.33012676       2.50000000      -3.00000000       48.4029694       1.57079697    
   4.33012676       2.50000000      -2.00000000       48.4029694       1.57079697    
   4.57987785       1.89704800      -2.00000000       48.4029694       1.57079697    
   4.57987785       1.89704800      -3.00000000       48.4029694       1.57079697    
   4.33012676       2.50000000      -2.00000000       48.4058228       1.57079673    
   4.33012676       2.50000000      -1.00000000       48.4058228       1.57079673    
   4.57987785       1.89704800      -1.00000000       48.4058228       1.57079673    
   4.57987785       1.89704800      -2.00000000       48.4058228       1.57079673    
   4.33012676       2.50000000      -1.00000000       48.1773643       1.57079649    
   4.33012676       2.50000000       0.00000000       48.1773643       1.57079649    
   4.57987785       1.89704800       0.00000000       48.1773643       1.57079649    
   4.57987785       1.89704800      -1.00000000       48.1773643       1.57079649    
   4.57987785       1.89704800      -10.0000000       47.3181534      -1.57079685    
   4.57987785       1.89704800      -9.00000000       47.3181534      -1.57079685    
   4.82962894       1.29409504      -9.00000000       47.3181534      -1.57079685    
   4.82962894       1.29409504      -10.0000000       47.3181534      -1.57079685    
   4.57987785       1.89704800      -9.00000000       48.3906631      -1.57079673    
   4.57987785       1.89704800      -8.00000000       48.3906631      -1.57079673    
   4.82962894       1.29409504      -8.00000000       48.3906631      -1.57079673    
   4.82962894       1.29409504      -9.00000000       48.3906631      -1.57079673    
   4.57987785       1.89704800      -8.00000000       48.3965874      -1.57079625    
   4.57987785       1.89704800      -7.00000000       48.3965874      -1.57079625    
   4.82962894       1.29409504      -7.00000000       48.3965874      -1.57079625    
   4.82962894       1.29409504      -8.00000000       48.3965874      -1.57079625    
   4.57987785       1.89704800      -7.00000000       48.4045181      -1.57079637    
   4.57987785       1.89704800      -6.00000000       48.4045181      -1.57079637    
   4.82962894       1.29409504      -6.00000000       48.4045181      -1.57079637    
   4.82962894       1.29409504      -7.00000000       48.4045181      -1.57079637    
   4.57987785       1.89704800      -6.00000000       48.3859901      -1.57079649    
   4.57987785       1.89704800      -5.00000000       48.3859901      -1.57079649    
   4.82962894       1.29409504      -5.00000000       48.3859901      -1.57079649    
   4.82962894       1.29409504      -6.00000000       48.3859901      -1.57079649    
   4.57987785       1.89704800      -5.00000000       48.3856277      -1.57079637    
   4.57987785       1.89704800      -4.00000000       48.3856277      -1.57079637    
   4.82962894       1.29409504      -4.00000000       48.3856277      -1.57079637    
   4.82962894       1.29409504      -5.00000000       48.3856277      -1.57079637    
   4.57987785       1.89704800      -4.00000000       48.4214859      -1.57079637    
   4.57987785       1.89704800      -3.00000000       48.4214859      -1.57079637    
   4.82962894       1.29409504      -3.00000000       48.4214859      -1.57079637    
   4.82962894       1.29409504      -4.00000000       48.4214859      -1.57079637    
   4.57987785       1.89704800      -3.00000000       48.4032974      -1.57079613    
   4.57987785       1.89704800      -2.00000000       48.4032974      -1.57079613    
   4.82962894       1.29409504      -2.00000000       48.4032974      -1.57079613    
   4.82962894       1.29409504      -3.00000000       48.4032974      -1.57079613    
   4.57987785       1.89704800      -2.00000000       48.4061203      -1.57079637    
   4.57987785       1.89704800      -1.00000000       48.4061203      -1.57079637    
   4.82962894       1.29409504      -1.00000000       48.4061203      -1.57079637    
   4.82962894       1.29409504      -2.00000000       48.4061203      -1.57079637    
   4.57987785       1.89704800      -1.00000000       48.1774979      -1.57079685    
   4.57987785       1.89704800       0.00000000       48.1774979      -1.57079685    
   4.82962894       1.29409504       0.00000000       48.1774979      -1.57079685    
   4.82962894       1.29409504      -1.00000000       48.1774979      -1.57079685    
   3.53553391       3.53553391      -10.0000000       47.3179932       1.57079625    
   3.53553391       3.53553391      -9.00000000       47.3179932       1.57079625    
   3.93283010       3.01776695      -9.00000000       47.3179932       1.57079625    
   3.93283010       3.01776695      -10.0000000       47.3179932       1.57079625    
   3.53553391       3.53553391      -9.00000000       48.3903046       1.57079649    
   3.53553391       3.53553391      -8.00000000       48.3903046       1.57079649    
   3.93283010       3.01776695      -8.00000000       48.3903046       1.57079649    
   3.93283010       3.01776695      -9.00000000       48.3903046       1.57079649    
   3.53553391       3.53553391      -8.00000000       48.3961983       1.57079637    
   3.53553391       3.53553391      -7.00000000       48.3961983       1.57079637    
   3.93283010       3.01776695      -7.00000000       48.3961983       1.57079637    
   3.93283010       3.01776695      -8.00000000       48.3961983       1.57079637    
   3.53553391       3.53553391      -7.00000000       48.4041214       1.57079673    
   3.53553391       3.53553391      -6.00000000       48.4041214       1.57079673    
   3.93283010       3.01776695      -6.00000000       48.4041214       1.57079673    
   3.93283010       3.01776695      -7.00000000       48.4041214       1.57079673    
   3.53553391       3.53553391      -6.00000000       48.3856888       1.57079649    
   3.53553391       3.53553391      -5.00000000       48.3856888       1.57079649    
   3.93283010       3.01776695      -5.00000000       48.3856888       1.57079649    
   3.93283010       3.01776695      -6.00000000       48.3856888       1.57079649    
   3.53553391       3.53553391      -5.00000000       48.3852272       1.57079637    
   3.53553391       3.53553391      -4.00000000       48.3852272       1.57079637    
   3.93283010       3.01776695      -4.00000000       48.3852272       1.57079637    
   3.93283010       3.01776695      -5.00000000       48.3852272       1.57079637    
   3.53553391       3.53553391      -4.00000000       48.4210243       1.57079649    
   3.53553391       3.53553391      -3.00000000       48.4210243       1.57079649    
   3.93283010       3.01776695      -3.00000000       48.4210243       1.57079649    
   3.93283010       3.01776695      -4.00000000       48.4210243       1.57079649    
   3.53553391       3.53553391      -3.00000000       48.4029808       1.57079661    
   3.53553391       3.53553391      -2.00000000       48.4029808       1.57079661    
   3.93283010       3.01776695      -2.00000000       48.4029808       1.57079661    
   3.93283010       3.01776695      -3.00000000       48.4029808       1.57079661    
   3.53553391       3.53553391      -2.00000000       48.4060593       1.57079625    
   3.53553391       3.53553391      -1.00000000       48.4060593       1.57079625    
   3.93283010       3.01776695      -1.00000000       48.4060593       1.57079625    
   3.93283010       3.01776695      -2.00000000       48.4060593       1.57079625    
   3.53553391       3.53553391      -1.00000000       48.1773987       1.57079661    
   3.53553391       3.53553391       0.00000000       48.1773987       1.57079661    
   3.93283010       3.01776695       0.00000000       48.1773987       1.57079661    
   3.93283010       3.01776695      -1.00000000       48.1773987       1.57079661    
   3.93283010       3.01776695      -10.0000000       47.3176498      -1.57079625    
   3.93283010       3.01776695      -9.00000000       47.3176498      -1.57079625    
   4.33012676       2.50000000      -9.00000000       47.3176498      -1.57079625    
   4.33012676       2.50000000      -10.0000000       47.3176498      -1.57079625    
   3.93283010       3.01776695      -9.00000000       48.3901405      -1.57079649    
   3.93283010       3.01776695      -8.00000000       48.3901405      -1.57079649    
   4.33012676       2.50000000      -8.00000000       48.3901405      -1.57079649    
   4.33012676       2.50000000      -9.00000000       48.3901405      -1.57079649    
   3.93283010       3.01776695      -8.00000000       48.3962402      -1.57079613    
   3.93283010       3.01776695      -7.00000000       48.3962402      -1.57079613    
   4.33012676       2.50000000      -7.00000000       48.3962402      -1.57079613    
   4.33012676       2.50000000      -8.00000000       48.3962402      -1.57079613    
   3.93283010       3.01776695      -7.00000000       48.4040871      -1.57079625    
   3.93283010       3.01776695      -6.00000000       48.4040871      -1.57079625    
   4.33012676       2.50000000      -6.00000000       48.4040871      -1.57079625    
   4.33012676       2.50000000      -7.00000000       48.4040871      -1.57079625    
   3.93283010       3.01776695      -6.00000000       48.3856125      -1.57079625    
   3.93283010       3.01776695      -5.00000000       48.3856125      -1.57079625    
   4.33012676       2.50000000      -5.00000000       48.3856125      -1.57079625    
   4.33012676       2.50000000      -6.00000000       48.3856125      -1.57079625    
   3.93283010       3.01776695      -5.00000000       48.3850555      -1.57079613    
   3.93283010       3.01776695      -4.00000000       48.3850555      -1.57079613    
   4.33012676       2.50000000      -4.00000000       48.3850555      -1.57079613    
   4.33012676       2.50000000      -5.00000000       48.3850555      -1.57079613    
   3.93283010       3.01776695      -4.00000000       48.4210625      -1.57079613    
   3.93283010       3.01776695      -3.00000000       48.4210625      -1.57079613    
   4.33012676       2.50000000      -3.00000000       48.4210625      -1.57079613    
   4.33012676       2.50000000      -4.00000000       48.4210625      -1.57079613    
   3.93283010       3.01776695      -3.00000000       48.4027519      -1.57079613    
   3.93283010       3.01776695      -2.00000000       48.4027519      -1.57079613    
   4.33012676       2.50000000      -2.00000000       48.4027519      -1.57079613    
   4.33012676       2.50000000      -3.00000000       48.4027519      -1.57079613    
   3.93283010       3.01776695      -2.00000000       48.4055862      -1.57079649    
   3.93283010       3.01776695      -1.00000000       48.4055862      -1.57079649    
   4.33012676       2.50000000      -1.00000000       48.4055862      -1.57079649    
   4.33012676       2.50000000      -2.00000000       48.4055862      -1.57079649    
   3.93283010       3.01776695      -1.00000000       48.1769753      -1.57079601    
   3.93283010       3.01776695       0.00000000       48.1769753      -1.57079601    
   4.33012676       2.50000000       0.00000000       48.1769753      -1.57079601    
   4.33012676       2.50000000      -1.00000000       48.1769753      -1.57079601    
   2.50000000       4.33012676      -10.0000000       47.3176003       1.57079613    
   2.50000000       4.33012676      -9.00000000       47.3176003       1.57079613    
   3.01776695       3.93283010      -9.00000000       47.3176003       1.57079613    
   3.01776695       3.93283010      -10.0000000       47.3176003       1.57079613    
   2.50000000       4.33012676      -9.00000000       48.3899078       1.57079649    
   2.50000000       4.33012676      -8.00000000       48.3899078       1.57079649    
   3.01776695       3.93283010      -8.00000000       48.3899078       1.57079649    
   3.01776695       3.93283010      -9.00000000       48.3899078       1.57079649    
   2.50000000       4.33012676      -8.00000000       48.3959160       1.57079661    
   2.50000000       4.33012676      -7.00000000       48.3959160       1.57079661    
   3.01776695       3.93283010      -7.00000000       48.3959160       1.57079661    
   3.01776695       3.93283010      -8.00000000       48.3959160       1.57079661    
   2.50000000       4.33012676      -7.00000000       48.4039040       1.57079685    
   2.50000000       4.33012676      -6.00000000       48.4039040       1.57079685    
   3.01776695       3.93283010      -6.00000000       48.4039040       1.57079685    
   3.01776695       3.93283010      -7.00000000       48.4039040       1.57079685    
   2.50000000       4.33012676      -6.00000000       48.3852654       1.57079673    
   2.50000000       4.33012676      -5.00000000       48.3852654       1.57079673    
   3.01776695       3.93283010      -5.00000000       48.3852654       1.57079673    
   3.01776695       3.93283010      -6.00000000       48.3852654       1.57079673    
   2.50000000       4.33012676      -5.00000000       48.3847389       1.57079673    
   2.50000000       4.33012676      -4.00000000       48.3847389       1.57079673    
   3.01776695       3.93283010      -4.00000000       48.3847389       1.57079673    
   3.01776695       3.93283010      -5.00000000       48.3847389       1.57079673    
   2.50000000       4.33012676      -4.00000000       48.4206734       1.57079649    
   2.50000000       4.33012676      -3.00000000       48.4206734       1.57079649    
   3.01776695       3.93283010      -3.00000000       48.4206734       1.57079649    
   3.01776695       3.93283010      -4.00000000       48.4206734       1.57079649    
   2.50000000       4.33012676      -3.00000000       48.4026413       1.57079613    
   2.50000000       4.33012676      -2.00000000       48.4026413       1.57079613    
   3.01776695       3.93283010      -2.00000000       48.4026413       1.57079613    
   3.01776695       3.93283010      -3.00000000       48.4026413       1.57079613    
   2.50000000       4.33012676      -2.00000000       48.4056282       1.57079637    
   2.50000000       4.33012676      -1.00000000       48.4056282       1.57079637    
   3.01776695       3.93283010      -1.00000000       48.4056282       1.57079637    
   3.01776695       3.93283010      -2.00000000       48.4056282       1.57079637    
   2.50000000       4.33012676      -1.00000000       48.1770554       1.57079685    
   2.50000000       4.33012676       0.00000000       48.1770554       1.57079685    
   3.01776695       3.93283010       0.00000000       48.1770554       1.57079685    
   3.01776695       3.93283010      -1.00000000       48.1770554       1.57079685    
   3.01776695       3.93283010      -10.0000000       47.3179398      -1.57079601    
   3.01776695       3.93283010      -9.00000000       47.3179398      -1.57079601    
   3.53553391       3.53553391      -9.00000000       47.3179398      -1.57079601    
   3.53553391       3.53553391      -10.0000000       47.3179398      -1.57079601    
   3.01776695       3.93283010      -9.00000000       48.3904533      -1.57079613    
   3.01776695       3.93283010      -8.00000000       48.3904533      -1.57079613    
   3.53553391       3.53553391      -8.00000000       48.3904533      -1.57079613    
   3.53553391       3.53553391      -9.00000000       48.3904533      -1.57079613    
   3.01776695       3.93283010      -8.00000000       48.3965149      -1.57079601    
   3.01776695       3.93283010      -7.00000000       48.3965149      -1.57079601    
   3.53553391       3.53553391      -7.00000000       48.3965149      -1.57079601    
   3.53553391       3.53553391      -8.00000000       48.3965149      -1.57079601    
   3.01776695       3.93283010      -7.00000000       48.4043770      -1.57079613    
   3.01776695       3.93283010      -6.00000000       48.4043770      -1.57079613    
   3.53553391       3.53553391      -6.00000000       48.4043770      -1.57079613    
   3.53553391       3.53553391      -7.00000000       48.4043770      -1.57079613    
   3.01776695       3.93283010      -6.00000000       48.3858757      -1.57079601    
   3.01776695       3.93283010      -5.00000000       48.3858757      -1.57079601    
   3.53553391       3.53553391      -5.00000000       48.3858757      -1.57079601    
   3.53553391       3.53553391      -6.00000000       48.3858757      -1.57079601    
   3.01776695       3.93283010      -5.00000000       48.3855057      -1.57079625    
   3.01776695       3.93283010      -4.00000000       48.3855057      -1.57079625    
   3.53553391       3.53553391      -4.00000000       48.3855057      -1.57079625    
   3.53553391       3.53553391      -5.00000000       48.3855057      -1.57079625    
   3.01776695       3.93283010      -4.00000000       48.4213905      -1.57079661    
   3.01776695       3.93283010      -3.00000000       48.4213905      -1.57079661    
   3.53553391       3.53553391      -3.00000000       48.4213905      -1.57079661    
   3.53553391       3.53553391      -4.00000000       48.4213905      -1.57079661    
   3.01776695       3.93283010      -3.00000000       48.4032784      -1.57079613    
   3.01776695       3.93283010      -2.00000000       48.4032784      -1.57079613    
   3.53553391       3.53553391      -2.00000000       48.4032784      -1.57079613    
   3.53553391       3.53553391      -3.00000000       48.4032784      -1.57079613    
   3.01776695       3.93283010      -2.00000000       48.4061203      -1.57079625    
   3.01776695       3.93283010      -1.00000000       48.4061203      -1.57079625    
   3.53553391       3.53553391      -1.00000000       48.4061203      -1.57079625    
   3.53553391       3.53553391      -2.00000000       48.4061203      -1.57079625    
   3.01776695       3.93283010      -1.00000000       48.1774712      -1.57079589    
   3.01776695       3.93283010       0.00000000       48.1774712      -1.57079589    
   3.53553391       3.53553391       0.00000000       48.1774712      -1.57079589    
   3.53553391       3.53553391      -1.00000000       48.1774712      -1.57079589    
   1.29409504       4.82962894      -10.0000000       47.3178520       1.57079613    
   1.29409504       4.82962894      -9.00000000       47.3178520       1.57079613    
   1.89704800       4.57987785      -9.00000000       47.3178520       1.57079613    
   1.89704800       4.57987785      -10.0000000       47.3178520       1.57079613    
   1.29409504       4.82962894      -9.00000000       48.3903046       1.57079601    
   1.29409504       4.82962894      -8.00000000       48.3903046       1.57079601    
   1.89704800       4.57987785      -8.00000000       48.3903046       1.57079601    
   1.89704800       4.57987785      -9.00000000       48.3903046       1.57079601    
   1.29409504       4.82962894      -8.00000000       48.3963432       1.57079613    
   1.29409504       4.82962894      -7.00000000       48.3963432       1.57079613    
   1.89704800       4.57987785      -7.00000000       48.3963432       1.57079613    
   1.89704800       4.57987785      -8.00000000       48.3963432       1.57079613    
   1.29409504       4.82962894      -7.00000000       48.4043732       1.57079613    
   1.29409504       4.82962894      -6.00000000       48.4043732       1.57079613    
   1.89704800       4.57987785      -6.00000000       48.4043732       1.57079613    
   1.89704800       4.57987785      -7.00000000       48.4043732       1.57079613    
   1.29409504       4.82962894      -6.00000000       48.3857689       1.57079613    
   1.29409504       4.82962894      -5.00000000       48.3857689       1.57079613    
   1.89704800       4.57987785      -5.00000000       48.3857689       1.57079613    
   1.89704800       4.57987785      -6.00000000       48.3857689       1.57079613    
   1.29409504       4.82962894      -5.00000000       48.3852577       1.57079577    
   1.29409504       4.82962894      -4.00000000       48.3852577       1.57079577    
   1.89704800       4.57987785      -4.00000000       48.3852577       1.57079577    
   1.89704800       4.57987785      -5.00000000       48.3852577       1.57079577    
   1.29409504       4.82962894      -4.00000000       48.4211960       1.57079625    
   1.29409504       4.82962894      -3.00000000       48.4211960       1.57079625    
   1.89704800       4.57987785      -3.00000000       48.4211960       1.57079625    