 VARIABLES="X" "Y" "Z" "abs(p) (Pa)" "angle(p) (rad)"
ZONE N=   1080,E =     600, F=FEPOINT, ET=QUADRILATERAL
   4.82962894       1.29409504      -10.0000000       550.897705      -1.11545432    
   4.82962894       1.29409504      -9.00000000       550.897705      -1.11545432    
   4.91481400      0.647047520      -9.00000000       550.897705      -1.11545432    
   4.91481400      0.647047520      -10.0000000       550.897705      -1.11545432    
   4.82962894       1.29409504      -9.00000000       713.902832      -1.12319863    
   4.82962894       1.29409504      -8.00000000       713.902832      -1.12319863    
   4.91481400      0.647047520      -8.00000000       713.902832      -1.12319863    
   4.91481400      0.647047520      -9.00000000       713.902832      -1.12319863    
   4.82962894       1.29409504      -8.00000000       824.304321      -1.09964645    
   4.82962894       1.29409504      -7.00000000       824.304321      -1.09964645    
   4.91481400      0.647047520      -7.00000000       824.304321      -1.09964645    
   4.91481400      0.647047520      -8.00000000       824.304321      -1.09964645    
   4.82962894       1.29409504      -7.00000000       919.557861      -1.06536353    
   4.82962894       1.29409504      -6.00000000       919.557861      -1.06536353    
   4.91481400      0.647047520      -6.00000000       919.557861      -1.06536353    
   4.91481400      0.647047520      -7.00000000       919.557861      -1.06536353    
   4.82962894       1.29409504      -6.00000000       1013.38934      -1.02600074    
   4.82962894       1.29409504      -5.00000000       1013.38934      -1.02600074    
   4.91481400      0.647047520      -5.00000000       1013.38934      -1.02600074    
   4.91481400      0.647047520      -6.00000000       1013.38934      -1.02600074    
   4.82962894       1.29409504      -5.00000000       1115.01782     -0.984950185    
   4.82962894       1.29409504      -4.00000000       1115.01782     -0.984950185    
   4.91481400      0.647047520      -4.00000000       1115.01782     -0.984950185    
   4.91481400      0.647047520      -5.00000000       1115.01782     -0.984950185    
   4.82962894       1.29409504      -4.00000000       1232.13074     -0.945155561    
   4.82962894       1.29409504      -3.00000000       1232.13074     -0.945155561    
   4.91481400      0.647047520      -3.00000000       1232.13074     -0.945155561    
   4.91481400      0.647047520      -4.00000000       1232.13074     -0.945155561    
   4.82962894       1.29409504      -3.00000000       1372.13623     -0.909423470    
   4.82962894       1.29409504      -2.00000000       1372.13623     -0.909423470    
   4.91481400      0.647047520      -2.00000000       1372.13623     -0.909423470    
   4.91481400      0.647047520      -3.00000000       1372.13623     -0.909423470    
   4.82962894       1.29409504      -2.00000000       1544.22632     -0.880776823    
   4.82962894       1.29409504      -1.00000000       1544.22632     -0.880776823    
   4.91481400      0.647047520      -1.00000000       1544.22632     -0.880776823    
   4.91481400      0.647047520      -2.00000000       1544.22632     -0.880776823    
   4.82962894       1.29409504      -1.00000000       1761.54919     -0.863105774    
   4.82962894       1.29409504       0.00000000       1761.54919     -0.863105774    
   4.91481400      0.647047520       0.00000000       1761.54919     -0.863105774    
   4.91481400      0.647047520      -1.00000000       1761.54919     -0.863105774    
   4.91481400      0.647047520      -10.0000000       217.598801      -1.16587305    
   4.91481400      0.647047520      -9.00000000       217.598801      -1.16587305    
   5.00000000       0.00000000      -9.00000000       217.598801      -1.16587305    
   5.00000000       0.00000000      -10.0000000       217.598801      -1.16587305    
   4.91481400      0.647047520      -9.00000000       276.994476      -1.16350460    
   4.91481400      0.647047520      -8.00000000       276.994476      -1.16350460    
   5.00000000       0.00000000      -8.00000000       276.994476      -1.16350460    
   5.00000000       0.00000000      -9.00000000       276.994476      -1.16350460    
   4.91481400      0.647047520      -8.00000000       316.056458      -1.13678193    
   4.91481400      0.647047520      -7.00000000       316.056458      -1.13678193    
   5.00000000       0.00000000      -7.00000000       316.056458      -1.13678193    
   5.00000000       0.00000000      -8.00000000       316.056458      -1.13678193    
   4.91481400      0.647047520      -7.00000000       349.575195      -1.10124183    
   4.91481400      0.647047520      -6.00000000       349.575195      -1.10124183    
   5.00000000       0.00000000      -6.00000000       349.575195      -1.10124183    
   5.00000000       0.00000000      -7.00000000       349.575195      -1.10124183    
   4.91481400      0.647047520      -6.00000000       382.436157      -1.06111467    
   4.91481400      0.647047520      -5.00000000       382.436157      -1.06111467    
   5.00000000       0.00000000      -5.00000000       382.436157      -1.06111467    
   5.00000000       0.00000000      -6.00000000       382.436157      -1.06111467    
   4.91481400      0.647047520      -5.00000000       418.035919      -1.01927483    
   4.91481400      0.647047520      -4.00000000       418.035919      -1.01927483    
   5.00000000       0.00000000      -4.00000000       418.035919      -1.01927483    
   5.00000000       0.00000000      -5.00000000       418.035919      -1.01927483    
   4.91481400      0.647047520      -4.00000000       459.120667     -0.978304267    
   4.91481400      0.647047520      -3.00000000       459.120667     -0.978304267    
   5.00000000       0.00000000      -3.00000000       459.120667     -0.978304267    
   5.00000000       0.00000000      -4.00000000       459.120667     -0.978304267    
   4.91481400      0.647047520      -3.00000000       508.325928     -0.940863788    
   4.91481400      0.647047520      -2.00000000       508.325928     -0.940863788    
   5.00000000       0.00000000      -2.00000000       508.325928     -0.940863788    
   5.00000000       0.00000000      -3.00000000       508.325928     -0.940863788    
   4.91481400      0.647047520      -2.00000000       569.034546     -0.909950793    
   4.91481400      0.647047520      -1.00000000       569.034546     -0.909950793    
   5.00000000       0.00000000      -1.00000000       569.034546     -0.909950793    
   5.00000000       0.00000000      -2.00000000       569.034546     -0.909950793    
   4.91481400      0.647047520      -1.00000000       645.623840     -0.889338851    
   4.91481400      0.647047520       0.00000000       645.623840     -0.889338851    
   5.00000000       0.00000000       0.00000000       645.623840     -0.889338851    
   5.00000000       0.00000000      -1.00000000       645.623840     -0.889338851    
   4.33012676       2.50000000      -10.0000000       1281.62073      -1.12401223    
   4.33012676       2.50000000      -9.00000000       1281.62073      -1.12401223    
   4.57987785       1.89704800      -9.00000000       1281.62073      -1.12401223    
   4.57987785       1.89704800      -10.0000000       1281.62073      -1.12401223    
   4.33012676       2.50000000      -9.00000000       1655.96228      -1.12993777    
   4.33012676       2.50000000      -8.00000000       1655.96228      -1.12993777    
   4.57987785       1.89704800      -8.00000000       1655.96228      -1.12993777    
   4.57987785       1.89704800      -9.00000000       1655.96228      -1.12993777    
   4.33012676       2.50000000      -8.00000000       1908.30859      -1.10579598    
   4.33012676       2.50000000      -7.00000000       1908.30859      -1.10579598    
   4.57987785       1.89704800      -7.00000000       1908.30859      -1.10579598    
   4.57987785       1.89704800      -8.00000000       1908.30859      -1.10579598    
   4.33012676       2.50000000      -7.00000000       2125.83447      -1.07126391    
   4.33012676       2.50000000      -6.00000000       2125.83447      -1.07126391    
   4.57987785       1.89704800      -6.00000000       2125.83447      -1.07126391    
   4.57987785       1.89704800      -7.00000000       2125.83447      -1.07126391    
   4.33012676       2.50000000      -6.00000000       2339.95508      -1.03173935    
   4.33012676       2.50000000      -5.00000000       2339.95508      -1.03173935    
   4.57987785       1.89704800      -5.00000000       2339.95508      -1.03173935    
   4.57987785       1.89704800      -6.00000000       2339.95508      -1.03173935    
   4.33012676       2.50000000      -5.00000000       2571.87842     -0.990528703    
   4.33012676       2.50000000      -4.00000000       2571.87842     -0.990528703    
   4.57987785       1.89704800      -4.00000000       2571.87842     -0.990528703    
   4.57987785       1.89704800      -5.00000000       2571.87842     -0.990528703    
   4.33012676       2.50000000      -4.00000000       2839.20044     -0.950515568    
   4.33012676       2.50000000      -3.00000000       2839.20044     -0.950515568    
   4.57987785       1.89704800      -3.00000000       2839.20044     -0.950515568    
   4.57987785       1.89704800      -4.00000000       2839.20044     -0.950515568    
   4.33012676       2.50000000      -3.00000000       3158.88452     -0.914478898    
   4.33012676       2.50000000      -2.00000000       3158.88452     -0.914478898    
   4.57987785       1.89704800      -2.00000000       3158.88452     -0.914478898    
   4.57987785       1.89704800      -3.00000000       3158.88452     -0.914478898    
   4.33012676       2.50000000      -2.00000000       3552.04785     -0.885449290    
   4.33012676       2.50000000      -1.00000000       3552.04785     -0.885449290    
   4.57987785       1.89704800      -1.00000000       3552.04785     -0.885449290    
   4.57987785       1.89704800      -2.00000000       3552.04785     -0.885449290    
   4.33012676       2.50000000      -1.00000000       4048.49341     -0.867286861    
   4.33012676       2.50000000       0.00000000       4048.49341     -0.867286861    
   4.57987785       1.89704800       0.00000000       4048.49341     -0.867286861    
   4.57987785       1.89704800      -1.00000000       4048.49341     -0.867286861    
   4.57987785       1.89704800      -10.0000000       970.962219      -1.13727629    
   4.57987785       1.89704800      -9.00000000       970.962219      -1.13727629    
   4.82962894       1.29409504      -9.00000000       970.962219      -1.13727629    
   4.82962894       1.29409504      -10.0000000       970.962219      -1.13727629    
   4.57987785       1.89704800      -9.00000000       1248.76733      -1.14046514    
   4.57987785       1.89704800      -8.00000000       1248.76733      -1.14046514    
   4.82962894       1.29409504      -8.00000000       1248.76733      -1.14046514    
   4.82962894       1.29409504      -9.00000000       1248.76733      -1.14046514    
   4.57987785       1.89704800      -8.00000000       1434.63818      -1.11544645    
   4.57987785       1.89704800      -7.00000000       1434.63818      -1.11544645    
   4.82962894       1.29409504      -7.00000000       1434.63818      -1.11544645    
   4.82962894       1.29409504      -8.00000000       1434.63818      -1.11544645    
   4.57987785       1.89704800      -7.00000000       1594.63330      -1.08055687    
   4.57987785       1.89704800      -6.00000000       1594.63330      -1.08055687    
   4.82962894       1.29409504      -6.00000000       1594.63330      -1.08055687    
   4.82962894       1.29409504      -7.00000000       1594.63330      -1.08055687    
   4.57987785       1.89704800      -6.00000000       1751.93347      -1.04080880    
   4.57987785       1.89704800      -5.00000000       1751.93347      -1.04080880    
   4.82962894       1.29409504      -5.00000000       1751.93347      -1.04080880    
   4.82962894       1.29409504      -6.00000000       1751.93347      -1.04080880    
   4.57987785       1.89704800      -5.00000000       1922.32288     -0.999370158    
   4.57987785       1.89704800      -4.00000000       1922.32288     -0.999370158    
   4.82962894       1.29409504      -4.00000000       1922.32288     -0.999370158    
   4.82962894       1.29409504      -5.00000000       1922.32288     -0.999370158    
   4.57987785       1.89704800      -4.00000000       2118.79688     -0.959030747    
   4.57987785       1.89704800      -3.00000000       2118.79688     -0.959030747    
   4.82962894       1.29409504      -3.00000000       2118.79688     -0.959030747    
   4.82962894       1.29409504      -4.00000000       2118.79688     -0.959030747    
   4.57987785       1.89704800      -3.00000000       2353.86353     -0.922536194    
   4.57987785       1.89704800      -2.00000000       2353.86353     -0.922536194    
   4.82962894       1.29409504      -2.00000000       2353.86353     -0.922536194    
   4.82962894       1.29409504      -3.00000000       2353.86353     -0.922536194    
   4.57987785       1.89704800      -2.00000000       2643.24292     -0.892908931    
   4.57987785       1.89704800      -1.00000000       2643.24292     -0.892908931    
   4.82962894       1.29409504      -1.00000000       2643.24292     -0.892908931    
   4.82962894       1.29409504      -2.00000000       2643.24292     -0.892908931    
   4.57987785       1.89704800      -1.00000000       3008.54614     -0.873979151    
   4.57987785       1.89704800       0.00000000       3008.54614     -0.873979151    
   4.82962894       1.29409504       0.00000000       3008.54614     -0.873979151    
   4.82962894       1.29409504      -1.00000000       3008.54614     -0.873979151    
   3.53553391       3.53553391      -10.0000000       1925.02966      -1.12646127    
   3.53553391       3.53553391      -9.00000000       1925.02966      -1.12646127    
   3.93283010       3.01776695      -9.00000000       1925.02966      -1.12646127    
   3.93283010       3.01776695      -10.0000000       1925.02966      -1.12646127    
   3.53553391       3.53553391      -9.00000000       2485.19141      -1.13187492    
   3.53553391       3.53553391      -8.00000000       2485.19141      -1.13187492    
   3.93283010       3.01776695      -8.00000000       2485.19141      -1.13187492    
   3.93283010       3.01776695      -9.00000000       2485.19141      -1.13187492    
   3.53553391       3.53553391      -8.00000000       2862.28394      -1.10756588    
   3.53553391       3.53553391      -7.00000000       2862.28394      -1.10756588    
   3.93283010       3.01776695      -7.00000000       2862.28394      -1.10756588    
   3.93283010       3.01776695      -8.00000000       2862.28394      -1.10756588    
   3.53553391       3.53553391      -7.00000000       3187.26147      -1.07296562    
   3.53553391       3.53553391      -6.00000000       3187.26147      -1.07296562    
   3.93283010       3.01776695      -6.00000000       3187.26147      -1.07296562    
   3.93283010       3.01776695      -7.00000000       3187.26147      -1.07296562    
   3.53553391       3.53553391      -6.00000000       3507.07764      -1.03339744    
   3.53553391       3.53553391      -5.00000000       3507.07764      -1.03339744    
   3.93283010       3.01776695      -5.00000000       3507.07764      -1.03339744    
   3.93283010       3.01776695      -6.00000000       3507.07764      -1.03339744    
   3.53553391       3.53553391      -5.00000000       3853.49121     -0.992143393    
   3.53553391       3.53553391      -4.00000000       3853.49121     -0.992143393    
   3.93283010       3.01776695      -4.00000000       3853.49121     -0.992143393    
   3.93283010       3.01776695      -5.00000000       3853.49121     -0.992143393    
   3.53553391       3.53553391      -4.00000000       4252.80664     -0.952068329    
   3.53553391       3.53553391      -3.00000000       4252.80664     -0.952068329    
   3.93283010       3.01776695      -3.00000000       4252.80664     -0.952068329    
   3.93283010       3.01776695      -4.00000000       4252.80664     -0.952068329    
   3.53553391       3.53553391      -3.00000000       4730.38135     -0.915946007    
   3.53553391       3.53553391      -2.00000000       4730.38135     -0.915946007    
   3.93283010       3.01776695      -2.00000000       4730.38135     -0.915946007    
   3.93283010       3.01776695      -3.00000000       4730.38135     -0.915946007    
   3.53553391       3.53553391      -2.00000000       5317.82715     -0.886806428    
   3.53553391       3.53553391      -1.00000000       5317.82715     -0.886806428    
   3.93283010       3.01776695      -1.00000000       5317.82715     -0.886806428    
   3.93283010       3.01776695      -2.00000000       5317.82715     -0.886806428    
   3.53553391       3.53553391      -1.00000000       6059.55371     -0.868503094    
   3.53553391       3.53553391       0.00000000       6059.55371     -0.868503094    
   3.93283010       3.01776695       0.00000000       6059.55371     -0.868503094    
   3.93283010       3.01776695      -1.00000000       6059.55371     -0.868503094    
   3.93283010       3.01776695      -10.0000000       1658.25757      -1.13352358    
   3.93283010       3.01776695      -9.00000000       1658.25757      -1.13352358    
   4.33012676       2.50000000      -9.00000000       1658.25757      -1.13352358    
   4.33012676       2.50000000      -10.0000000       1658.25757      -1.13352358    
   3.93283010       3.01776695      -9.00000000       2135.52222      -1.13747823    
   3.93283010       3.01776695      -8.00000000       2135.52222      -1.13747823    
   4.33012676       2.50000000      -8.00000000       2135.52222      -1.13747823    
   4.33012676       2.50000000      -9.00000000       2135.52222      -1.13747823    
   3.93283010       3.01776695      -8.00000000       2455.53149      -1.11270189    
   3.93283010       3.01776695      -7.00000000       2455.53149      -1.11270189    
   4.33012676       2.50000000      -7.00000000       2455.53149      -1.11270189    
   4.33012676       2.50000000      -8.00000000       2455.53149      -1.11270189    
   3.93283010       3.01776695      -7.00000000       2731.10645      -1.07790923    
   3.93283010       3.01776695      -6.00000000       2731.10645      -1.07790923    
   4.33012676       2.50000000      -6.00000000       2731.10645      -1.07790923    
   4.33012676       2.50000000      -7.00000000       2731.10645      -1.07790923    
   3.93283010       3.01776695      -6.00000000       3002.12939      -1.03822148    
   3.93283010       3.01776695      -5.00000000       3002.12939      -1.03822148    
   4.33012676       2.50000000      -5.00000000       3002.12939      -1.03822148    
   4.33012676       2.50000000      -6.00000000       3002.12939      -1.03822148    
   3.93283010       3.01776695      -5.00000000       3295.70264     -0.996845245    
   3.93283010       3.01776695      -4.00000000       3295.70264     -0.996845245    
   4.33012676       2.50000000      -4.00000000       3295.70264     -0.996845245    
   4.33012676       2.50000000      -5.00000000       3295.70264     -0.996845245    
   3.93283010       3.01776695      -4.00000000       3634.17993     -0.956595421    
   3.93283010       3.01776695      -3.00000000       3634.17993     -0.956595421    
   4.33012676       2.50000000      -3.00000000       3634.17993     -0.956595421    
   4.33012676       2.50000000      -4.00000000       3634.17993     -0.956595421    
   3.93283010       3.01776695      -3.00000000       4039.09253     -0.920229316    
   3.93283010       3.01776695      -2.00000000       4039.09253     -0.920229316    
   4.33012676       2.50000000      -2.00000000       4039.09253     -0.920229316    
   4.33012676       2.50000000      -3.00000000       4039.09253     -0.920229316    
   3.93283010       3.01776695      -2.00000000       4537.41895     -0.890770078    
   3.93283010       3.01776695      -1.00000000       4537.41895     -0.890770078    
   4.33012676       2.50000000      -1.00000000       4537.41895     -0.890770078    
   4.33012676       2.50000000      -2.00000000       4537.41895     -0.890770078    
   3.93283010       3.01776695      -1.00000000       5166.53174     -0.872059524    
   3.93283010       3.01776695       0.00000000       5166.53174     -0.872059524    
   4.33012676       2.50000000       0.00000000       5166.53174     -0.872059524    
   4.33012676       2.50000000      -1.00000000       5166.53174     -0.872059524    
   2.50000000       4.33012676      -10.0000000       2437.25806      -1.12774849    
   2.50000000       4.33012676      -9.00000000       2437.25806      -1.12774849    
   3.01776695       3.93283010      -9.00000000       2437.25806      -1.12774849    
   3.01776695       3.93283010      -10.0000000       2437.25806      -1.12774849    
   2.50000000       4.33012676      -9.00000000       3145.06592      -1.13289416    
   2.50000000       4.33012676      -8.00000000       3145.06592      -1.13289416    
   3.01776695       3.93283010      -8.00000000       3145.06592      -1.13289416    
   3.01776695       3.93283010      -9.00000000       3145.06592      -1.13289416    
   2.50000000       4.33012676      -8.00000000       3621.20801      -1.10849953    
   2.50000000       4.33012676      -7.00000000       3621.20801      -1.10849953    
   3.01776695       3.93283010      -7.00000000       3621.20801      -1.10849953    
   3.01776695       3.93283010      -8.00000000       3621.20801      -1.10849953    
   2.50000000       4.33012676      -7.00000000       4031.48706      -1.07386291    
   2.50000000       4.33012676      -6.00000000       4031.48706      -1.07386291    
   3.01776695       3.93283010      -6.00000000       4031.48706      -1.07386291    
   3.01776695       3.93283010      -7.00000000       4031.48706      -1.07386291    
   2.50000000       4.33012676      -6.00000000       4435.20410      -1.03427303    
   2.50000000       4.33012676      -5.00000000       4435.20410      -1.03427303    
   3.01776695       3.93283010      -5.00000000       4435.20410      -1.03427303    
   3.01776695       3.93283010      -6.00000000       4435.20410      -1.03427303    
   2.50000000       4.33012676      -5.00000000       4872.49902     -0.992996097    
   2.50000000       4.33012676      -4.00000000       4872.49902     -0.992996097    
   3.01776695       3.93283010      -4.00000000       4872.49902     -0.992996097    
   3.01776695       3.93283010      -5.00000000       4872.49902     -0.992996097    
   2.50000000       4.33012676      -4.00000000       5376.59570     -0.952888787    
   2.50000000       4.33012676      -3.00000000       5376.59570     -0.952888787    
   3.01776695       3.93283010      -3.00000000       5376.59570     -0.952888787    
   3.01776695       3.93283010      -4.00000000       5376.59570     -0.952888787    
   2.50000000       4.33012676      -3.00000000       5979.51465     -0.916721702    
   2.50000000       4.33012676      -2.00000000       5979.51465     -0.916721702    
   3.01776695       3.93283010      -2.00000000       5979.51465     -0.916721702    
   3.01776695       3.93283010      -3.00000000       5979.51465     -0.916721702    
   2.50000000       4.33012676      -2.00000000       6721.21387     -0.887523472    
   2.50000000       4.33012676      -1.00000000       6721.21387     -0.887523472    
   3.01776695       3.93283010      -1.00000000       6721.21387     -0.887523472    
   3.01776695       3.93283010      -2.00000000       6721.21387     -0.887523472    
   2.50000000       4.33012676      -1.00000000       7657.67334     -0.869146109    
   2.50000000       4.33012676       0.00000000       7657.67334     -0.869146109    
   3.01776695       3.93283010       0.00000000       7657.67334     -0.869146109    
   3.01776695       3.93283010      -1.00000000       7657.67334     -0.869146109    
   3.01776695       3.93283010      -10.0000000       2232.55420      -1.13189268    
   3.01776695       3.93283010      -9.00000000       2232.55420      -1.13189268    
   3.53553391       3.53553391      -9.00000000       2232.55420      -1.13189268    
   3.53553391       3.53553391      -10.0000000       2232.55420      -1.13189268    
   3.01776695       3.93283010      -9.00000000       2876.75195      -1.13618076    
   3.01776695       3.93283010      -8.00000000       2876.75195      -1.13618076    
   3.53553391       3.53553391      -8.00000000       2876.75195      -1.13618076    
   3.53553391       3.53553391      -9.00000000       2876.75195      -1.13618076    
   3.01776695       3.93283010      -8.00000000       3309.09204      -1.11151206    
   3.01776695       3.93283010      -7.00000000       3309.09204      -1.11151206    
   3.53553391       3.53553391      -7.00000000       3309.09204      -1.11151206    
   3.53553391       3.53553391      -8.00000000       3309.09204      -1.11151206    
   3.01776695       3.93283010      -7.00000000       3681.46558      -1.07676184    
   3.01776695       3.93283010      -6.00000000       3681.46558      -1.07676184    
   3.53553391       3.53553391      -6.00000000       3681.46558      -1.07676184    
   3.53553391       3.53553391      -7.00000000       3681.46558      -1.07676184    
   3.01776695       3.93283010      -6.00000000       4047.74219      -1.03710091    
   3.01776695       3.93283010      -5.00000000       4047.74219      -1.03710091    
   3.53553391       3.53553391      -5.00000000       4047.74219      -1.03710091    
   3.53553391       3.53553391      -6.00000000       4047.74219      -1.03710091    
   3.01776695       3.93283010      -5.00000000       4444.49463     -0.995752573    
   3.01776695       3.93283010      -4.00000000       4444.49463     -0.995752573    
   3.53553391       3.53553391      -4.00000000       4444.49463     -0.995752573    
   3.53553391       3.53553391      -5.00000000       4444.49463     -0.995752573    
   3.01776695       3.93283010      -4.00000000       4901.90723     -0.955542803    
   3.01776695       3.93283010      -3.00000000       4901.90723     -0.955542803    
   3.53553391       3.53553391      -3.00000000       4901.90723     -0.955542803    
   3.53553391       3.53553391      -4.00000000       4901.90723     -0.955542803    
   3.01776695       3.93283010      -3.00000000       5449.06494     -0.919233024    
   3.01776695       3.93283010      -2.00000000       5449.06494     -0.919233024    
   3.53553391       3.53553391      -2.00000000       5449.06494     -0.919233024    
   3.53553391       3.53553391      -3.00000000       5449.06494     -0.919233024    
   3.01776695       3.93283010      -2.00000000       6122.38232     -0.889847755    
   3.01776695       3.93283010      -1.00000000       6122.38232     -0.889847755    
   3.53553391       3.53553391      -1.00000000       6122.38232     -0.889847755    
   3.53553391       3.53553391      -2.00000000       6122.38232     -0.889847755    
   3.01776695       3.93283010      -1.00000000       6972.42676     -0.871231973    
   3.01776695       3.93283010       0.00000000       6972.42676     -0.871231973    
   3.53553391       3.53553391       0.00000000       6972.42676     -0.871231973    
   3.53553391       3.53553391      -1.00000000       6972.42676     -0.871231973    
   1.29409504       4.82962894      -10.0000000       2783.39307      -1.12863934    
   1.29409504       4.82962894      -9.00000000       2783.39307      -1.12863934    
   1.89704800       4.57987785      -9.00000000       2783.39307      -1.12863934    
   1.89704800       4.57987785      -10.0000000       2783.39307      -1.12863934    
   1.29409504       4.82962894      -9.00000000       3590.60645      -1.13359988    
   1.29409504       4.82962894      -8.00000000       3590.60645      -1.13359988    
   1.89704800       4.57987785      -8.00000000       3590.60645      -1.13359988    
   1.89704800       4.57987785      -9.00000000       3590.60645      -1.13359988    
   1.29409504       4.82962894      -8.00000000       4133.35010      -1.10914600    
   1.29409504       4.82962894      -7.00000000       4133.35010      -1.10914600    
   1.89704800       4.57987785      -7.00000000       4133.35010      -1.10914600    
   1.89704800       4.57987785      -8.00000000       4133.35010      -1.10914600    
   1.29409504       4.82962894      -7.00000000       4600.97510      -1.07448471    
   1.29409504       4.82962894      -6.00000000       4600.97510      -1.07448471    
   1.89704800       4.57987785      -6.00000000       4600.97510      -1.07448471    
   1.89704800       4.57987785      -7.00000000       4600.97510      -1.07448471    
   1.29409504       4.82962894      -6.00000000       5061.08154      -1.03487885    
   1.29409504       4.82962894      -5.00000000       5061.08154      -1.03487885    
   1.89704800       4.57987785      -5.00000000       5061.08154      -1.03487885    
   1.89704800       4.57987785      -6.00000000       5061.08154      -1.03487885    
   1.29409504       4.82962894      -5.00000000       5559.45703     -0.993587077    
   1.29409504       4.82962894      -4.00000000       5559.45703     -0.993587077    
   1.89704800       4.57987785      -4.00000000       5559.45703     -0.993587077    
   1.89704800       4.57987785      -5.00000000       5559.45703     -0.993587077    
   1.29409504       4.82962894      -4.00000000       6133.98193     -0.953457236    
   1.29409504       4.82962894      -3.00000000       6133.98193     -0.953457236    
   1.89704800       4.57987785      -3.00000000       6133.98193     -0.953457236    