 VARIABLES="X" "Y" "Z" "abs(p) (Pa)" "angle(p) (rad)"
ZONE N=   1080,E =     600, F=FEPOINT, ET=QUADRILATERAL
   4.82962894       1.29409504      -10.0000000       597.129333      -2.27068925    
   4.82962894       1.29409504      -9.00000000       597.129333      -2.27068925    
   4.91481400      0.647047520      -9.00000000       597.129333      -2.27068925    
   4.91481400      0.647047520      -10.0000000       597.129333      -2.27068925    
   4.82962894       1.29409504      -9.00000000       830.552551      -2.34136057    
   4.82962894       1.29409504      -8.00000000       830.552551      -2.34136057    
   4.91481400      0.647047520      -8.00000000       830.552551      -2.34136057    
   4.91481400      0.647047520      -9.00000000       830.552551      -2.34136057    
   4.82962894       1.29409504      -8.00000000       1133.04968      -2.36736941    
   4.82962894       1.29409504      -7.00000000       1133.04968      -2.36736941    
   4.91481400      0.647047520      -7.00000000       1133.04968      -2.36736941    
   4.91481400      0.647047520      -8.00000000       1133.04968      -2.36736941    
   4.82962894       1.29409504      -7.00000000       1538.65430      -2.37941957    
   4.82962894       1.29409504      -6.00000000       1538.65430      -2.37941957    
   4.91481400      0.647047520      -6.00000000       1538.65430      -2.37941957    
   4.91481400      0.647047520      -7.00000000       1538.65430      -2.37941957    
   4.82962894       1.29409504      -6.00000000       2086.61450      -2.38493943    
   4.82962894       1.29409504      -5.00000000       2086.61450      -2.38493943    
   4.91481400      0.647047520      -5.00000000       2086.61450      -2.38493943    
   4.91481400      0.647047520      -6.00000000       2086.61450      -2.38493943    
   4.82962894       1.29409504      -5.00000000       2828.37378      -2.38742995    
   4.82962894       1.29409504      -4.00000000       2828.37378      -2.38742995    
   4.91481400      0.647047520      -4.00000000       2828.37378      -2.38742995    
   4.91481400      0.647047520      -5.00000000       2828.37378      -2.38742995    
   4.82962894       1.29409504      -4.00000000       3832.99268      -2.38816476    
   4.82962894       1.29409504      -3.00000000       3832.99268      -2.38816476    
   4.91481400      0.647047520      -3.00000000       3832.99268      -2.38816476    
   4.91481400      0.647047520      -4.00000000       3832.99268      -2.38816476    
   4.82962894       1.29409504      -3.00000000       5193.19727      -2.38749719    
   4.82962894       1.29409504      -2.00000000       5193.19727      -2.38749719    
   4.91481400      0.647047520      -2.00000000       5193.19727      -2.38749719    
   4.91481400      0.647047520      -3.00000000       5193.19727      -2.38749719    
   4.82962894       1.29409504      -2.00000000       7034.61963      -2.38608694    
   4.82962894       1.29409504      -1.00000000       7034.61963      -2.38608694    
   4.91481400      0.647047520      -1.00000000       7034.61963      -2.38608694    
   4.91481400      0.647047520      -2.00000000       7034.61963      -2.38608694    
   4.82962894       1.29409504      -1.00000000       9517.80273      -2.38311172    
   4.82962894       1.29409504       0.00000000       9517.80273      -2.38311172    
   4.91481400      0.647047520       0.00000000       9517.80273      -2.38311172    
   4.91481400      0.647047520      -1.00000000       9517.80273      -2.38311172    
   4.91481400      0.647047520      -10.0000000       617.584961      -2.26474071    
   4.91481400      0.647047520      -9.00000000       617.584961      -2.26474071    
   5.00000000       0.00000000      -9.00000000       617.584961      -2.26474071    
   5.00000000       0.00000000      -10.0000000       617.584961      -2.26474071    
   4.91481400      0.647047520      -9.00000000       861.861633      -2.33435130    
   4.91481400      0.647047520      -8.00000000       861.861633      -2.33435130    
   5.00000000       0.00000000      -8.00000000       861.861633      -2.33435130    
   5.00000000       0.00000000      -9.00000000       861.861633      -2.33435130    
   4.91481400      0.647047520      -8.00000000       1176.97998      -2.35997319    
   4.91481400      0.647047520      -7.00000000       1176.97998      -2.35997319    
   5.00000000       0.00000000      -7.00000000       1176.97998      -2.35997319    
   5.00000000       0.00000000      -8.00000000       1176.97998      -2.35997319    
   4.91481400      0.647047520      -7.00000000       1598.97717      -2.37186360    
   4.91481400      0.647047520      -6.00000000       1598.97717      -2.37186360    
   5.00000000       0.00000000      -6.00000000       1598.97717      -2.37186360    
   5.00000000       0.00000000      -7.00000000       1598.97717      -2.37186360    
   4.91481400      0.647047520      -6.00000000       2168.79883      -2.37732601    
   4.91481400      0.647047520      -5.00000000       2168.79883      -2.37732601    
   5.00000000       0.00000000      -5.00000000       2168.79883      -2.37732601    
   5.00000000       0.00000000      -6.00000000       2168.79883      -2.37732601    
   4.91481400      0.647047520      -5.00000000       2939.98633      -2.37980270    
   4.91481400      0.647047520      -4.00000000       2939.98633      -2.37980270    
   5.00000000       0.00000000      -4.00000000       2939.98633      -2.37980270    
   5.00000000       0.00000000      -5.00000000       2939.98633      -2.37980270    
   4.91481400      0.647047520      -4.00000000       3984.30542      -2.38055634    
   4.91481400      0.647047520      -3.00000000       3984.30542      -2.38055634    
   5.00000000       0.00000000      -3.00000000       3984.30542      -2.38055634    
   5.00000000       0.00000000      -4.00000000       3984.30542      -2.38055634    
   4.91481400      0.647047520      -3.00000000       5398.10156      -2.37994361    
   4.91481400      0.647047520      -2.00000000       5398.10156      -2.37994361    
   5.00000000       0.00000000      -2.00000000       5398.10156      -2.37994361    
   5.00000000       0.00000000      -3.00000000       5398.10156      -2.37994361    
   4.91481400      0.647047520      -2.00000000       7311.87695      -2.37861013    
   4.91481400      0.647047520      -1.00000000       7311.87695      -2.37861013    
   5.00000000       0.00000000      -1.00000000       7311.87695      -2.37861013    
   5.00000000       0.00000000      -2.00000000       7311.87695      -2.37861013    
   4.91481400      0.647047520      -1.00000000       9892.21875      -2.37580752    
   4.91481400      0.647047520       0.00000000       9892.21875      -2.37580752    
   5.00000000       0.00000000       0.00000000       9892.21875      -2.37580752    
   5.00000000       0.00000000      -1.00000000       9892.21875      -2.37580752    
   4.33012676       2.50000000      -10.0000000       497.044861      -2.29418349    
   4.33012676       2.50000000      -9.00000000       497.044861      -2.29418349    
   4.57987785       1.89704800      -9.00000000       497.044861      -2.29418349    
   4.57987785       1.89704800      -10.0000000       497.044861      -2.29418349    
   4.33012676       2.50000000      -9.00000000       676.791504      -2.37044811    
   4.33012676       2.50000000      -8.00000000       676.791504      -2.37044811    
   4.57987785       1.89704800      -8.00000000       676.791504      -2.37044811    
   4.57987785       1.89704800      -9.00000000       676.791504      -2.37044811    
   4.33012676       2.50000000      -8.00000000       917.246460      -2.39871120    
   4.33012676       2.50000000      -7.00000000       917.246460      -2.39871120    
   4.57987785       1.89704800      -7.00000000       917.246460      -2.39871120    
   4.57987785       1.89704800      -8.00000000       917.246460      -2.39871120    
   4.33012676       2.50000000      -7.00000000       1242.28845      -2.41170931    
   4.33012676       2.50000000      -6.00000000       1242.28845      -2.41170931    
   4.57987785       1.89704800      -6.00000000       1242.28845      -2.41170931    
   4.57987785       1.89704800      -7.00000000       1242.28845      -2.41170931    
   4.33012676       2.50000000      -6.00000000       1682.80627      -2.41756797    
   4.33012676       2.50000000      -5.00000000       1682.80627      -2.41756797    
   4.57987785       1.89704800      -5.00000000       1682.80627      -2.41756797    
   4.57987785       1.89704800      -6.00000000       1682.80627      -2.41756797    
   4.33012676       2.50000000      -5.00000000       2279.92993      -2.42013168    
   4.33012676       2.50000000      -4.00000000       2279.92993      -2.42013168    
   4.57987785       1.89704800      -4.00000000       2279.92993      -2.42013168    
   4.57987785       1.89704800      -5.00000000       2279.92993      -2.42013168    
   4.33012676       2.50000000      -4.00000000       3089.35400      -2.42074037    
   4.33012676       2.50000000      -3.00000000       3089.35400      -2.42074037    
   4.57987785       1.89704800      -3.00000000       3089.35400      -2.42074037    
   4.57987785       1.89704800      -4.00000000       3089.35400      -2.42074037    
   4.33012676       2.50000000      -3.00000000       4186.17920      -2.41973662    
   4.33012676       2.50000000      -2.00000000       4186.17920      -2.41973662    
   4.57987785       1.89704800      -2.00000000       4186.17920      -2.41973662    
   4.57987785       1.89704800      -3.00000000       4186.17920      -2.41973662    
   4.33012676       2.50000000      -2.00000000       5672.05127      -2.41785502    
   4.33012676       2.50000000      -1.00000000       5672.05127      -2.41785502    
   4.57987785       1.89704800      -1.00000000       5672.05127      -2.41785502    
   4.57987785       1.89704800      -2.00000000       5672.05127      -2.41785502    
   4.33012676       2.50000000      -1.00000000       7678.92236      -2.41384768    
   4.33012676       2.50000000       0.00000000       7678.92236      -2.41384768    
   4.57987785       1.89704800       0.00000000       7678.92236      -2.41384768    
   4.57987785       1.89704800      -1.00000000       7678.92236      -2.41384768    
   4.57987785       1.89704800      -10.0000000       552.941162      -2.27902865    
   4.57987785       1.89704800      -9.00000000       552.941162      -2.27902865    
   4.82962894       1.29409504      -9.00000000       552.941162      -2.27902865    
   4.82962894       1.29409504      -10.0000000       552.941162      -2.27902865    
   4.57987785       1.89704800      -9.00000000       762.319336      -2.35207200    
   4.57987785       1.89704800      -8.00000000       762.319336      -2.35207200    
   4.82962894       1.29409504      -8.00000000       762.319336      -2.35207200    
   4.82962894       1.29409504      -9.00000000       762.319336      -2.35207200    
   4.57987785       1.89704800      -8.00000000       1037.24841      -2.37904072    
   4.57987785       1.89704800      -7.00000000       1037.24841      -2.37904072    
   4.82962894       1.29409504      -7.00000000       1037.24841      -2.37904072    
   4.82962894       1.29409504      -8.00000000       1037.24841      -2.37904072    
   4.57987785       1.89704800      -7.00000000       1407.07288      -2.39148760    
   4.57987785       1.89704800      -6.00000000       1407.07288      -2.39148760    
   4.82962894       1.29409504      -6.00000000       1407.07288      -2.39148760    
   4.82962894       1.29409504      -7.00000000       1407.07288      -2.39148760    
   4.57987785       1.89704800      -6.00000000       1907.32214      -2.39715195    
   4.57987785       1.89704800      -5.00000000       1907.32214      -2.39715195    
   4.82962894       1.29409504      -5.00000000       1907.32214      -2.39715195    
   4.82962894       1.29409504      -6.00000000       1907.32214      -2.39715195    
   4.57987785       1.89704800      -5.00000000       2584.84766      -2.39967489    
   4.57987785       1.89704800      -4.00000000       2584.84766      -2.39967489    
   4.82962894       1.29409504      -4.00000000       2584.84766      -2.39967489    
   4.82962894       1.29409504      -5.00000000       2584.84766      -2.39967489    
   4.57987785       1.89704800      -4.00000000       3502.74316      -2.40035796    
   4.57987785       1.89704800      -3.00000000       3502.74316      -2.40035796    
   4.82962894       1.29409504      -3.00000000       3502.74316      -2.40035796    
   4.82962894       1.29409504      -4.00000000       3502.74316      -2.40035796    
   4.57987785       1.89704800      -3.00000000       4745.98389      -2.39956093    
   4.57987785       1.89704800      -2.00000000       4745.98389      -2.39956093    
   4.82962894       1.29409504      -2.00000000       4745.98389      -2.39956093    
   4.82962894       1.29409504      -3.00000000       4745.98389      -2.39956093    
   4.57987785       1.89704800      -2.00000000       6429.53076      -2.39796066    
   4.57987785       1.89704800      -1.00000000       6429.53076      -2.39796066    
   4.82962894       1.29409504      -1.00000000       6429.53076      -2.39796066    
   4.82962894       1.29409504      -2.00000000       6429.53076      -2.39796066    
   4.57987785       1.89704800      -1.00000000       8701.81250      -2.39458823    
   4.57987785       1.89704800       0.00000000       8701.81250      -2.39458823    
   4.82962894       1.29409504       0.00000000       8701.81250      -2.39458823    
   4.82962894       1.29409504      -1.00000000       8701.81250      -2.39458823    
   3.53553391       3.53553391      -10.0000000       344.535095      -2.31208277    
   3.53553391       3.53553391      -9.00000000       344.535095      -2.31208277    
   3.93283010       3.01776695      -9.00000000       344.535095      -2.31208277    
   3.93283010       3.01776695      -10.0000000       344.535095      -2.31208277    
   3.53553391       3.53553391      -9.00000000       442.282227      -2.39601040    
   3.53553391       3.53553391      -8.00000000       442.282227      -2.39601040    
   3.93283010       3.01776695      -8.00000000       442.282227      -2.39601040    
   3.93283010       3.01776695      -9.00000000       442.282227      -2.39601040    
   3.53553391       3.53553391      -8.00000000       587.946411      -2.42866135    
   3.53553391       3.53553391      -7.00000000       587.946411      -2.42866135    
   3.93283010       3.01776695      -7.00000000       587.946411      -2.42866135    
   3.93283010       3.01776695      -8.00000000       587.946411      -2.42866135    
   3.53553391       3.53553391      -7.00000000       789.919678      -2.44363284    
   3.53553391       3.53553391      -6.00000000       789.919678      -2.44363284    
   3.93283010       3.01776695      -6.00000000       789.919678      -2.44363284    
   3.93283010       3.01776695      -7.00000000       789.919678      -2.44363284    
   3.53553391       3.53553391      -6.00000000       1066.34509      -2.45014668    
   3.53553391       3.53553391      -5.00000000       1066.34509      -2.45014668    
   3.93283010       3.01776695      -5.00000000       1066.34509      -2.45014668    
   3.93283010       3.01776695      -6.00000000       1066.34509      -2.45014668    
   3.53553391       3.53553391      -5.00000000       1442.58545      -2.45276999    
   3.53553391       3.53553391      -4.00000000       1442.58545      -2.45276999    
   3.93283010       3.01776695      -4.00000000       1442.58545      -2.45276999    
   3.93283010       3.01776695      -5.00000000       1442.58545      -2.45276999    
   3.53553391       3.53553391      -4.00000000       1953.95166      -2.45296240    
   3.53553391       3.53553391      -3.00000000       1953.95166      -2.45296240    
   3.93283010       3.01776695      -3.00000000       1953.95166      -2.45296240    
   3.93283010       3.01776695      -4.00000000       1953.95166      -2.45296240    
   3.53553391       3.53553391      -3.00000000       2648.66602      -2.45100045    
   3.53553391       3.53553391      -2.00000000       2648.66602      -2.45100045    
   3.93283010       3.01776695      -2.00000000       2648.66602      -2.45100045    
   3.93283010       3.01776695      -3.00000000       2648.66602      -2.45100045    
   3.53553391       3.53553391      -2.00000000       3591.82642      -2.44781685    
   3.53553391       3.53553391      -1.00000000       3591.82642      -2.44781685    
   3.93283010       3.01776695      -1.00000000       3591.82642      -2.44781685    
   3.93283010       3.01776695      -2.00000000       3591.82642      -2.44781685    
   3.53553391       3.53553391      -1.00000000       4872.43262      -2.44106078    
   3.53553391       3.53553391       0.00000000       4872.43262      -2.44106078    
   3.93283010       3.01776695       0.00000000       4872.43262      -2.44106078    
   3.93283010       3.01776695      -1.00000000       4872.43262      -2.44106078    
   3.93283010       3.01776695      -10.0000000       420.786591      -2.30140090    
   3.93283010       3.01776695      -9.00000000       420.786591      -2.30140090    
   4.33012676       2.50000000      -9.00000000       420.786591      -2.30140090    
   4.33012676       2.50000000      -10.0000000       420.786591      -2.30140090    
   3.93283010       3.01776695      -9.00000000       558.933594      -2.38166475    
   3.93283010       3.01776695      -8.00000000       558.933594      -2.38166475    
   4.33012676       2.50000000      -8.00000000       558.933594      -2.38166475    
   4.33012676       2.50000000      -9.00000000       558.933594      -2.38166475    
   3.93283010       3.01776695      -8.00000000       751.684143      -2.41201997    
   3.93283010       3.01776695      -7.00000000       751.684143      -2.41201997    
   4.33012676       2.50000000      -7.00000000       751.684143      -2.41201997    
   4.33012676       2.50000000      -8.00000000       751.684143      -2.41201997    
   3.93283010       3.01776695      -7.00000000       1014.82349      -2.42592406    
   3.93283010       3.01776695      -6.00000000       1014.82349      -2.42592406    
   4.33012676       2.50000000      -6.00000000       1014.82349      -2.42592406    
   4.33012676       2.50000000      -7.00000000       1014.82349      -2.42592406    
   3.93283010       3.01776695      -6.00000000       1372.81604      -2.43209839    
   3.93283010       3.01776695      -5.00000000       1372.81604      -2.43209839    
   4.33012676       2.50000000      -5.00000000       1372.81604      -2.43209839    
   4.33012676       2.50000000      -6.00000000       1372.81604      -2.43209839    
   3.93283010       3.01776695      -5.00000000       1858.85071      -2.43470931    
   3.93283010       3.01776695      -4.00000000       1858.85071      -2.43470931    
   4.33012676       2.50000000      -4.00000000       1858.85071      -2.43470931    
   4.33012676       2.50000000      -5.00000000       1858.85071      -2.43470931    
   3.93283010       3.01776695      -4.00000000       2518.30713      -2.43515062    
   3.93283010       3.01776695      -3.00000000       2518.30713      -2.43515062    
   4.33012676       2.50000000      -3.00000000       2518.30713      -2.43515062    
   4.33012676       2.50000000      -4.00000000       2518.30713      -2.43515062    
   3.93283010       3.01776695      -3.00000000       3412.89282      -2.43377352    
   3.93283010       3.01776695      -2.00000000       3412.89282      -2.43377352    
   4.33012676       2.50000000      -2.00000000       3412.89282      -2.43377352    
   4.33012676       2.50000000      -3.00000000       3412.89282      -2.43377352    
   3.93283010       3.01776695      -2.00000000       4625.83838      -2.43136215    
   3.93283010       3.01776695      -1.00000000       4625.83838      -2.43136215    
   4.33012676       2.50000000      -1.00000000       4625.83838      -2.43136215    
   4.33012676       2.50000000      -2.00000000       4625.83838      -2.43136215    
   3.93283010       3.01776695      -1.00000000       6268.33447      -2.42628741    
   3.93283010       3.01776695       0.00000000       6268.33447      -2.42628741    
   4.33012676       2.50000000       0.00000000       6268.33447      -2.42628741    
   4.33012676       2.50000000      -1.00000000       6268.33447      -2.42628741    
   2.50000000       4.33012676      -10.0000000       183.538086      -2.21765327    
   2.50000000       4.33012676      -9.00000000       183.538086      -2.21765327    
   3.01776695       3.93283010      -9.00000000       183.538086      -2.21765327    
   3.01776695       3.93283010      -10.0000000       183.538086      -2.21765327    
   2.50000000       4.33012676      -9.00000000       195.294235      -2.25543451    
   2.50000000       4.33012676      -8.00000000       195.294235      -2.25543451    
   3.01776695       3.93283010      -8.00000000       195.294235      -2.25543451    
   3.01776695       3.93283010      -9.00000000       195.294235      -2.25543451    
   2.50000000       4.33012676      -8.00000000       240.634033      -2.27563024    
   2.50000000       4.33012676      -7.00000000       240.634033      -2.27563024    
   3.01776695       3.93283010      -7.00000000       240.634033      -2.27563024    
   3.01776695       3.93283010      -8.00000000       240.634033      -2.27563024    
   2.50000000       4.33012676      -7.00000000       312.369598      -2.28541446    
   2.50000000       4.33012676      -6.00000000       312.369598      -2.28541446    
   3.01776695       3.93283010      -6.00000000       312.369598      -2.28541446    
   3.01776695       3.93283010      -7.00000000       312.369598      -2.28541446    
   2.50000000       4.33012676      -6.00000000       415.378571      -2.28866363    
   2.50000000       4.33012676      -5.00000000       415.378571      -2.28866363    
   3.01776695       3.93283010      -5.00000000       415.378571      -2.28866363    
   3.01776695       3.93283010      -6.00000000       415.378571      -2.28866363    
   2.50000000       4.33012676      -5.00000000       558.386597      -2.28883553    
   2.50000000       4.33012676      -4.00000000       558.386597      -2.28883553    
   3.01776695       3.93283010      -4.00000000       558.386597      -2.28883553    
   3.01776695       3.93283010      -5.00000000       558.386597      -2.28883553    
   2.50000000       4.33012676      -4.00000000       755.378235      -2.28648353    
   2.50000000       4.33012676      -3.00000000       755.378235      -2.28648353    
   3.01776695       3.93283010      -3.00000000       755.378235      -2.28648353    
   3.01776695       3.93283010      -4.00000000       755.378235      -2.28648353    
   2.50000000       4.33012676      -3.00000000       1026.74390      -2.28109193    
   2.50000000       4.33012676      -2.00000000       1026.74390      -2.28109193    
   3.01776695       3.93283010      -2.00000000       1026.74390      -2.28109193    
   3.01776695       3.93283010      -3.00000000       1026.74390      -2.28109193    
   2.50000000       4.33012676      -2.00000000       1399.48816      -2.27396226    
   2.50000000       4.33012676      -1.00000000       1399.48816      -2.27396226    
   3.01776695       3.93283010      -1.00000000       1399.48816      -2.27396226    
   3.01776695       3.93283010      -2.00000000       1399.48816      -2.27396226    
   2.50000000       4.33012676      -1.00000000       1920.93115      -2.25985646    
   2.50000000       4.33012676       0.00000000       1920.93115      -2.25985646    
   3.01776695       3.93283010       0.00000000       1920.93115      -2.25985646    
   3.01776695       3.93283010      -1.00000000       1920.93115      -2.25985646    
   3.01776695       3.93283010      -10.0000000       258.020172      -2.27895856    
   3.01776695       3.93283010      -9.00000000       258.020172      -2.27895856    
   3.53553391       3.53553391      -9.00000000       258.020172      -2.27895856    
   3.53553391       3.53553391      -10.0000000       258.020172      -2.27895856    
   3.01776695       3.93283010      -9.00000000       308.333008      -2.35564995    
   3.01776695       3.93283010      -8.00000000       308.333008      -2.35564995    
   3.53553391       3.53553391      -8.00000000       308.333008      -2.35564995    
   3.53553391       3.53553391      -9.00000000       308.333008      -2.35564995    
   3.01776695       3.93283010      -8.00000000       399.375153      -2.38865137    
   3.01776695       3.93283010      -7.00000000       399.375153      -2.38865137    
   3.53553391       3.53553391      -7.00000000       399.375153      -2.38865137    
   3.53553391       3.53553391      -8.00000000       399.375153      -2.38865137    
   3.01776695       3.93283010      -7.00000000       530.554077      -2.40400958    
   3.01776695       3.93283010      -6.00000000       530.554077      -2.40400958    
   3.53553391       3.53553391      -6.00000000       530.554077      -2.40400958    
   3.53553391       3.53553391      -7.00000000       530.554077      -2.40400958    
   3.01776695       3.93283010      -6.00000000       712.718079      -2.41042185    
   3.01776695       3.93283010      -5.00000000       712.718079      -2.41042185    
   3.53553391       3.53553391      -5.00000000       712.718079      -2.41042185    
   3.53553391       3.53553391      -6.00000000       712.718079      -2.41042185    
   3.01776695       3.93283010      -5.00000000       962.160767      -2.41267729    
   3.01776695       3.93283010      -4.00000000       962.160767      -2.41267729    
   3.53553391       3.53553391      -4.00000000       962.160767      -2.41267729    
   3.53553391       3.53553391      -5.00000000       962.160767      -2.41267729    
   3.01776695       3.93283010      -4.00000000       1302.49011      -2.41212749    
   3.01776695       3.93283010      -3.00000000       1302.49011      -2.41212749    
   3.53553391       3.53553391      -3.00000000       1302.49011      -2.41212749    
   3.53553391       3.53553391      -4.00000000       1302.49011      -2.41212749    
   3.01776695       3.93283010      -3.00000000       1766.79700      -2.40897417    
   3.01776695       3.93283010      -2.00000000       1766.79700      -2.40897417    
   3.53553391       3.53553391      -2.00000000       1766.79700      -2.40897417    
   3.53553391       3.53553391      -3.00000000       1766.79700      -2.40897417    
   3.01776695       3.93283010      -2.00000000       2399.33154      -2.40426302    
   3.01776695       3.93283010      -1.00000000       2399.33154      -2.40426302    
   3.53553391       3.53553391      -1.00000000       2399.33154      -2.40426302    
   3.53553391       3.53553391      -2.00000000       2399.33154      -2.40426302    
   3.01776695       3.93283010      -1.00000000       3266.50439      -2.39469600    
   3.01776695       3.93283010       0.00000000       3266.50439      -2.39469600    
   3.53553391       3.53553391       0.00000000       3266.50439      -2.39469600    
   3.53553391       3.53553391      -1.00000000       3266.50439      -2.39469600    
   1.29409504       4.82962894      -10.0000000       88.3327179      -1.47746110    
   1.29409504       4.82962894      -9.00000000       88.3327179      -1.47746110    
   1.89704800       4.57987785      -9.00000000       88.3327179      -1.47746110    
   1.89704800       4.57987785      -10.0000000       88.3327179      -1.47746110    
   1.29409504       4.82962894      -9.00000000       109.848595     -0.873602211    
   1.29409504       4.82962894      -8.00000000       109.848595     -0.873602211    
   1.89704800       4.57987785      -8.00000000       109.848595     -0.873602211    
   1.89704800       4.57987785      -9.00000000       109.848595     -0.873602211    
   1.29409504       4.82962894      -8.00000000       156.421036     -0.683834553    
   1.29409504       4.82962894      -7.00000000       156.421036     -0.683834553    
   1.89704800       4.57987785      -7.00000000       156.421036     -0.683834553    
   1.89704800       4.57987785      -8.00000000       156.421036     -0.683834553    
   1.29409504       4.82962894      -7.00000000       218.702759     -0.612501383    
   1.29409504       4.82962894      -6.00000000       218.702759     -0.612501383    
   1.89704800       4.57987785      -6.00000000       218.702759     -0.612501383    
   1.89704800       4.57987785      -7.00000000       218.702759     -0.612501383    
   1.29409504       4.82962894      -6.00000000       301.634949     -0.584756374    
   1.29409504       4.82962894      -5.00000000       301.634949     -0.584756374    
   1.89704800       4.57987785      -5.00000000       301.634949     -0.584756374    
   1.89704800       4.57987785      -6.00000000       301.634949     -0.584756374    
   1.29409504       4.82962894      -5.00000000       412.995605     -0.574162900    
   1.29409504       4.82962894      -4.00000000       412.995605     -0.574162900    
   1.89704800       4.57987785      -4.00000000       412.995605     -0.574162900    
   1.89704800       4.57987785      -5.00000000       412.995605     -0.574162900    
   1.29409504       4.82962894      -4.00000000       563.688171     -0.573049426    
   1.29409504       4.82962894      -3.00000000       563.688171     -0.573049426    
   1.89704800       4.57987785      -3.00000000       563.688171     -0.573049426    