 VARIABLES="X" "Y" "Z" "abs(p) (Pa)" "angle(p) (rad)"
ZONE N=   1080,E =     600, F=FEPOINT, ET=QUADRILATERAL
   4.82962894       1.29409504      -10.0000000       120.614021      -1.57051206    
   4.82962894       1.29409504      -9.00000000       120.614021      -1.57051206    
   4.91481400      0.647047520      -9.00000000       120.614021      -1.57051206    
   4.91481400      0.647047520      -10.0000000       120.614021      -1.57051206    
   4.82962894       1.29409504      -9.00000000       152.244186      -1.57054985    
   4.82962894       1.29409504      -8.00000000       152.244186      -1.57054985    
   4.91481400      0.647047520      -8.00000000       152.244186      -1.57054985    
   4.91481400      0.647047520      -9.00000000       152.244186      -1.57054985    
   4.82962894       1.29409504      -8.00000000       170.259323      -1.57056570    
   4.82962894       1.29409504      -7.00000000       170.259323      -1.57056570    
   4.91481400      0.647047520      -7.00000000       170.259323      -1.57056570    
   4.91481400      0.647047520      -8.00000000       170.259323      -1.57056570    
   4.82962894       1.29409504      -7.00000000       182.434494      -1.57057250    
   4.82962894       1.29409504      -6.00000000       182.434494      -1.57057250    
   4.91481400      0.647047520      -6.00000000       182.434494      -1.57057250    
   4.91481400      0.647047520      -7.00000000       182.434494      -1.57057250    
   4.82962894       1.29409504      -6.00000000       191.171005      -1.57057786    
   4.82962894       1.29409504      -5.00000000       191.171005      -1.57057786    
   4.91481400      0.647047520      -5.00000000       191.171005      -1.57057786    
   4.91481400      0.647047520      -6.00000000       191.171005      -1.57057786    
   4.82962894       1.29409504      -5.00000000       197.621078      -1.57058012    
   4.82962894       1.29409504      -4.00000000       197.621078      -1.57058012    
   4.91481400      0.647047520      -4.00000000       197.621078      -1.57058012    
   4.91481400      0.647047520      -5.00000000       197.621078      -1.57058012    
   4.82962894       1.29409504      -4.00000000       202.437134      -1.57058203    
   4.82962894       1.29409504      -3.00000000       202.437134      -1.57058203    
   4.91481400      0.647047520      -3.00000000       202.437134      -1.57058203    
   4.91481400      0.647047520      -4.00000000       202.437134      -1.57058203    
   4.82962894       1.29409504      -3.00000000       206.015060      -1.57058322    
   4.82962894       1.29409504      -2.00000000       206.015060      -1.57058322    
   4.91481400      0.647047520      -2.00000000       206.015060      -1.57058322    
   4.91481400      0.647047520      -3.00000000       206.015060      -1.57058322    
   4.82962894       1.29409504      -2.00000000       208.617767      -1.57058382    
   4.82962894       1.29409504      -1.00000000       208.617767      -1.57058382    
   4.91481400      0.647047520      -1.00000000       208.617767      -1.57058382    
   4.91481400      0.647047520      -2.00000000       208.617767      -1.57058382    
   4.82962894       1.29409504      -1.00000000       210.453049      -1.57058382    
   4.82962894       1.29409504       0.00000000       210.453049      -1.57058382    
   4.91481400      0.647047520       0.00000000       210.453049      -1.57058382    
   4.91481400      0.647047520      -1.00000000       210.453049      -1.57058382    
   4.91481400      0.647047520      -10.0000000       47.8772469      -1.57054412    
   4.91481400      0.647047520      -9.00000000       47.8772469      -1.57054412    
   5.00000000       0.00000000      -9.00000000       47.8772469      -1.57054412    
   5.00000000       0.00000000      -10.0000000       47.8772469      -1.57054412    
   4.91481400      0.647047520      -9.00000000       59.4322777      -1.57057226    
   4.91481400      0.647047520      -8.00000000       59.4322777      -1.57057226    
   5.00000000       0.00000000      -8.00000000       59.4322777      -1.57057226    
   5.00000000       0.00000000      -9.00000000       59.4322777      -1.57057226    
   4.91481400      0.647047520      -8.00000000       65.8568039      -1.57058442    
   4.91481400      0.647047520      -7.00000000       65.8568039      -1.57058442    
   5.00000000       0.00000000      -7.00000000       65.8568039      -1.57058442    
   5.00000000       0.00000000      -8.00000000       65.8568039      -1.57058442    
   4.91481400      0.647047520      -7.00000000       70.2001572      -1.57058990    
   4.91481400      0.647047520      -6.00000000       70.2001572      -1.57058990    
   5.00000000       0.00000000      -6.00000000       70.2001572      -1.57058990    
   5.00000000       0.00000000      -7.00000000       70.2001572      -1.57058990    
   4.91481400      0.647047520      -6.00000000       73.3067169      -1.57059264    
   4.91481400      0.647047520      -5.00000000       73.3067169      -1.57059264    
   5.00000000       0.00000000      -5.00000000       73.3067169      -1.57059264    
   5.00000000       0.00000000      -6.00000000       73.3067169      -1.57059264    
   4.91481400      0.647047520      -5.00000000       75.6061783      -1.57059765    
   4.91481400      0.647047520      -4.00000000       75.6061783      -1.57059765    
   5.00000000       0.00000000      -4.00000000       75.6061783      -1.57059765    
   5.00000000       0.00000000      -5.00000000       75.6061783      -1.57059765    
   4.91481400      0.647047520      -4.00000000       77.3257751      -1.57059669    
   4.91481400      0.647047520      -3.00000000       77.3257751      -1.57059669    
   5.00000000       0.00000000      -3.00000000       77.3257751      -1.57059669    
   5.00000000       0.00000000      -4.00000000       77.3257751      -1.57059669    
   4.91481400      0.647047520      -3.00000000       78.5960236      -1.57059836    
   4.91481400      0.647047520      -2.00000000       78.5960236      -1.57059836    
   5.00000000       0.00000000      -2.00000000       78.5960236      -1.57059836    
   5.00000000       0.00000000      -3.00000000       78.5960236      -1.57059836    
   4.91481400      0.647047520      -2.00000000       79.5233002      -1.57059896    
   4.91481400      0.647047520      -1.00000000       79.5233002      -1.57059896    
   5.00000000       0.00000000      -1.00000000       79.5233002      -1.57059896    
   5.00000000       0.00000000      -2.00000000       79.5233002      -1.57059896    
   4.91481400      0.647047520      -1.00000000       80.1245728      -1.57059765    
   4.91481400      0.647047520       0.00000000       80.1245728      -1.57059765    
   5.00000000       0.00000000       0.00000000       80.1245728      -1.57059765    
   5.00000000       0.00000000      -1.00000000       80.1245728      -1.57059765    
   4.33012676       2.50000000      -10.0000000       280.884766      -1.57051730    
   4.33012676       2.50000000      -9.00000000       280.884766      -1.57051730    
   4.57987785       1.89704800      -9.00000000       280.884766      -1.57051730    
   4.57987785       1.89704800      -10.0000000       280.884766      -1.57051730    
   4.33012676       2.50000000      -9.00000000       353.545746      -1.57055390    
   4.33012676       2.50000000      -8.00000000       353.545746      -1.57055390    
   4.57987785       1.89704800      -8.00000000       353.545746      -1.57055390    
   4.57987785       1.89704800      -9.00000000       353.545746      -1.57055390    
   4.33012676       2.50000000      -8.00000000       394.773773      -1.57056820    
   4.33012676       2.50000000      -7.00000000       394.773773      -1.57056820    
   4.57987785       1.89704800      -7.00000000       394.773773      -1.57056820    
   4.57987785       1.89704800      -8.00000000       394.773773      -1.57056820    
   4.33012676       2.50000000      -7.00000000       422.634460      -1.57057571    
   4.33012676       2.50000000      -6.00000000       422.634460      -1.57057571    
   4.57987785       1.89704800      -6.00000000       422.634460      -1.57057571    
   4.57987785       1.89704800      -7.00000000       422.634460      -1.57057571    
   4.33012676       2.50000000      -6.00000000       442.622620      -1.57058001    
   4.33012676       2.50000000      -5.00000000       442.622620      -1.57058001    
   4.57987785       1.89704800      -5.00000000       442.622620      -1.57058001    
   4.57987785       1.89704800      -6.00000000       442.622620      -1.57058001    
   4.33012676       2.50000000      -5.00000000       457.381775      -1.57058251    
   4.33012676       2.50000000      -4.00000000       457.381775      -1.57058251    
   4.57987785       1.89704800      -4.00000000       457.381775      -1.57058251    
   4.57987785       1.89704800      -5.00000000       457.381775      -1.57058251    
   4.33012676       2.50000000      -4.00000000       468.402863      -1.57058454    
   4.33012676       2.50000000      -3.00000000       468.402863      -1.57058454    
   4.57987785       1.89704800      -3.00000000       468.402863      -1.57058454    
   4.57987785       1.89704800      -4.00000000       468.402863      -1.57058454    
   4.33012676       2.50000000      -3.00000000       476.586212      -1.57058561    
   4.33012676       2.50000000      -2.00000000       476.586212      -1.57058561    
   4.57987785       1.89704800      -2.00000000       476.586212      -1.57058561    
   4.57987785       1.89704800      -3.00000000       476.586212      -1.57058561    
   4.33012676       2.50000000      -2.00000000       482.539307      -1.57058585    
   4.33012676       2.50000000      -1.00000000       482.539307      -1.57058585    
   4.57987785       1.89704800      -1.00000000       482.539307      -1.57058585    
   4.57987785       1.89704800      -2.00000000       482.539307      -1.57058585    
   4.33012676       2.50000000      -1.00000000       486.687531      -1.57058573    
   4.33012676       2.50000000       0.00000000       486.687531      -1.57058573    
   4.57987785       1.89704800       0.00000000       486.687531      -1.57058573    
   4.57987785       1.89704800      -1.00000000       486.687531      -1.57058573    
   4.57987785       1.89704800      -10.0000000       213.105286      -1.57052529    
   4.57987785       1.89704800      -9.00000000       213.105286      -1.57052529    
   4.82962894       1.29409504      -9.00000000       213.105286      -1.57052529    
   4.82962894       1.29409504      -10.0000000       213.105286      -1.57052529    
   4.57987785       1.89704800      -9.00000000       267.058838      -1.57055998    
   4.57987785       1.89704800      -8.00000000       267.058838      -1.57055998    
   4.82962894       1.29409504      -8.00000000       267.058838      -1.57055998    
   4.82962894       1.29409504      -9.00000000       267.058838      -1.57055998    
   4.57987785       1.89704800      -8.00000000       297.485687      -1.57057285    
   4.57987785       1.89704800      -7.00000000       297.485687      -1.57057285    
   4.82962894       1.29409504      -7.00000000       297.485687      -1.57057285    
   4.82962894       1.29409504      -8.00000000       297.485687      -1.57057285    
   4.57987785       1.89704800      -7.00000000       318.049957      -1.57057989    
   4.57987785       1.89704800      -6.00000000       318.049957      -1.57057989    
   4.82962894       1.29409504      -6.00000000       318.049957      -1.57057989    
   4.82962894       1.29409504      -7.00000000       318.049957      -1.57057989    
   4.57987785       1.89704800      -6.00000000       332.789093      -1.57058454    
   4.57987785       1.89704800      -5.00000000       332.789093      -1.57058454    
   4.82962894       1.29409504      -5.00000000       332.789093      -1.57058454    
   4.82962894       1.29409504      -6.00000000       332.789093      -1.57058454    
   4.57987785       1.89704800      -5.00000000       343.682800      -1.57058692    
   4.57987785       1.89704800      -4.00000000       343.682800      -1.57058692    
   4.82962894       1.29409504      -4.00000000       343.682800      -1.57058692    
   4.82962894       1.29409504      -5.00000000       343.682800      -1.57058692    
   4.57987785       1.89704800      -4.00000000       351.816345      -1.57058823    
   4.57987785       1.89704800      -3.00000000       351.816345      -1.57058823    
   4.82962894       1.29409504      -3.00000000       351.816345      -1.57058823    
   4.82962894       1.29409504      -4.00000000       351.816345      -1.57058823    
   4.57987785       1.89704800      -3.00000000       357.849670      -1.57058907    
   4.57987785       1.89704800      -2.00000000       357.849670      -1.57058907    
   4.82962894       1.29409504      -2.00000000       357.849670      -1.57058907    
   4.82962894       1.29409504      -3.00000000       357.849670      -1.57058907    
   4.57987785       1.89704800      -2.00000000       362.243256      -1.57058966    
   4.57987785       1.89704800      -1.00000000       362.243256      -1.57058966    
   4.82962894       1.29409504      -1.00000000       362.243256      -1.57058966    
   4.82962894       1.29409504      -2.00000000       362.243256      -1.57058966    
   4.57987785       1.89704800      -1.00000000       365.240051      -1.57058954    
   4.57987785       1.89704800       0.00000000       365.240051      -1.57058954    
   4.82962894       1.29409504       0.00000000       365.240051      -1.57058954    
   4.82962894       1.29409504      -1.00000000       365.240051      -1.57058954    
   3.53553391       3.53553391      -10.0000000       422.014038      -1.57051885    
   3.53553391       3.53553391      -9.00000000       422.014038      -1.57051885    
   3.93283010       3.01776695      -9.00000000       422.014038      -1.57051885    
   3.93283010       3.01776695      -10.0000000       422.014038      -1.57051885    
   3.53553391       3.53553391      -9.00000000       530.754517      -1.57055497    
   3.53553391       3.53553391      -8.00000000       530.754517      -1.57055497    
   3.93283010       3.01776695      -8.00000000       530.754517      -1.57055497    
   3.93283010       3.01776695      -9.00000000       530.754517      -1.57055497    
   3.53553391       3.53553391      -8.00000000       592.385498      -1.57056892    
   3.53553391       3.53553391      -7.00000000       592.385498      -1.57056892    
   3.93283010       3.01776695      -7.00000000       592.385498      -1.57056892    
   3.93283010       3.01776695      -8.00000000       592.385498      -1.57056892    
   3.53553391       3.53553391      -7.00000000       634.034912      -1.57057631    
   3.53553391       3.53553391      -6.00000000       634.034912      -1.57057631    
   3.93283010       3.01776695      -6.00000000       634.034912      -1.57057631    
   3.93283010       3.01776695      -7.00000000       634.034912      -1.57057631    
   3.53553391       3.53553391      -6.00000000       663.910583      -1.57058120    
   3.53553391       3.53553391      -5.00000000       663.910583      -1.57058120    
   3.93283010       3.01776695      -5.00000000       663.910583      -1.57058120    
   3.93283010       3.01776695      -6.00000000       663.910583      -1.57058120    
   3.53553391       3.53553391      -5.00000000       685.973022      -1.57058358    
   3.53553391       3.53553391      -4.00000000       685.973022      -1.57058358    
   3.93283010       3.01776695      -4.00000000       685.973022      -1.57058358    
   3.93283010       3.01776695      -5.00000000       685.973022      -1.57058358    
   3.53553391       3.53553391      -4.00000000       702.446777      -1.57058513    
   3.53553391       3.53553391      -3.00000000       702.446777      -1.57058513    
   3.93283010       3.01776695      -3.00000000       702.446777      -1.57058513    
   3.93283010       3.01776695      -4.00000000       702.446777      -1.57058513    
   3.53553391       3.53553391      -3.00000000       714.677673      -1.57058620    
   3.53553391       3.53553391      -2.00000000       714.677673      -1.57058620    
   3.93283010       3.01776695      -2.00000000       714.677673      -1.57058620    
   3.93283010       3.01776695      -3.00000000       714.677673      -1.57058620    
   3.53553391       3.53553391      -2.00000000       723.577881      -1.57058644    
   3.53553391       3.53553391      -1.00000000       723.577881      -1.57058644    
   3.93283010       3.01776695      -1.00000000       723.577881      -1.57058644    
   3.93283010       3.01776695      -2.00000000       723.577881      -1.57058644    
   3.53553391       3.53553391      -1.00000000       729.755493      -1.57058620    
   3.53553391       3.53553391       0.00000000       729.755493      -1.57058620    
   3.93283010       3.01776695       0.00000000       729.755493      -1.57058620    
   3.93283010       3.01776695      -1.00000000       729.755493      -1.57058620    
   3.93283010       3.01776695      -10.0000000       363.809723      -1.57052374    
   3.93283010       3.01776695      -9.00000000       363.809723      -1.57052374    
   4.33012676       2.50000000      -9.00000000       363.809723      -1.57052374    
   4.33012676       2.50000000      -10.0000000       363.809723      -1.57052374    
   3.93283010       3.01776695      -9.00000000       456.485992      -1.57055795    
   3.93283010       3.01776695      -8.00000000       456.485992      -1.57055795    
   4.33012676       2.50000000      -8.00000000       456.485992      -1.57055795    
   4.33012676       2.50000000      -9.00000000       456.485992      -1.57055795    
   3.93283010       3.01776695      -8.00000000       508.841919      -1.57057154    
   3.93283010       3.01776695      -7.00000000       508.841919      -1.57057154    
   4.33012676       2.50000000      -7.00000000       508.841919      -1.57057154    
   4.33012676       2.50000000      -8.00000000       508.841919      -1.57057154    
   3.93283010       3.01776695      -7.00000000       544.224976      -1.57057893    
   3.93283010       3.01776695      -6.00000000       544.224976      -1.57057893    
   4.33012676       2.50000000      -6.00000000       544.224976      -1.57057893    
   4.33012676       2.50000000      -7.00000000       544.224976      -1.57057893    
   3.93283010       3.01776695      -6.00000000       569.593384      -1.57058322    
   3.93283010       3.01776695      -5.00000000       569.593384      -1.57058322    
   4.33012676       2.50000000      -5.00000000       569.593384      -1.57058322    
   4.33012676       2.50000000      -6.00000000       569.593384      -1.57058322    
   3.93283010       3.01776695      -5.00000000       588.335999      -1.57058585    
   3.93283010       3.01776695      -4.00000000       588.335999      -1.57058585    
   4.33012676       2.50000000      -4.00000000       588.335999      -1.57058585    
   4.33012676       2.50000000      -5.00000000       588.335999      -1.57058585    
   3.93283010       3.01776695      -4.00000000       602.333252      -1.57058728    
   3.93283010       3.01776695      -3.00000000       602.333252      -1.57058728    
   4.33012676       2.50000000      -3.00000000       602.333252      -1.57058728    
   4.33012676       2.50000000      -4.00000000       602.333252      -1.57058728    
   3.93283010       3.01776695      -3.00000000       612.717651      -1.57058787    
   3.93283010       3.01776695      -2.00000000       612.717651      -1.57058787    
   4.33012676       2.50000000      -2.00000000       612.717651      -1.57058787    
   4.33012676       2.50000000      -3.00000000       612.717651      -1.57058787    
   3.93283010       3.01776695      -2.00000000       620.278259      -1.57058835    
   3.93283010       3.01776695      -1.00000000       620.278259      -1.57058835    
   4.33012676       2.50000000      -1.00000000       620.278259      -1.57058835    
   4.33012676       2.50000000      -2.00000000       620.278259      -1.57058835    
   3.93283010       3.01776695      -1.00000000       625.466187      -1.57058823    
   3.93283010       3.01776695       0.00000000       625.466187      -1.57058823    
   4.33012676       2.50000000       0.00000000       625.466187      -1.57058823    
   4.33012676       2.50000000      -1.00000000       625.466187      -1.57058823    
   2.50000000       4.33012676      -10.0000000       534.384399      -1.57051969    
   2.50000000       4.33012676      -9.00000000       534.384399      -1.57051969    
   3.01776695       3.93283010      -9.00000000       534.384399      -1.57051969    
   3.01776695       3.93283010      -10.0000000       534.384399      -1.57051969    
   2.50000000       4.33012676      -9.00000000       671.791687      -1.57055545    
   2.50000000       4.33012676      -8.00000000       671.791687      -1.57055545    
   3.01776695       3.93283010      -8.00000000       671.791687      -1.57055545    
   3.01776695       3.93283010      -9.00000000       671.791687      -1.57055545    
   2.50000000       4.33012676      -8.00000000       749.626160      -1.57056940    
   2.50000000       4.33012676      -7.00000000       749.626160      -1.57056940    
   3.01776695       3.93283010      -7.00000000       749.626160      -1.57056940    
   3.01776695       3.93283010      -8.00000000       749.626160      -1.57056940    
   2.50000000       4.33012676      -7.00000000       802.225342      -1.57057691    
   2.50000000       4.33012676      -6.00000000       802.225342      -1.57057691    
   3.01776695       3.93283010      -6.00000000       802.225342      -1.57057691    
   3.01776695       3.93283010      -7.00000000       802.225342      -1.57057691    
   2.50000000       4.33012676      -6.00000000       839.951477      -1.57058144    
   2.50000000       4.33012676      -5.00000000       839.951477      -1.57058144    
   3.01776695       3.93283010      -5.00000000       839.951477      -1.57058144    
   3.01776695       3.93283010      -6.00000000       839.951477      -1.57058144    
   2.50000000       4.33012676      -5.00000000       867.816895      -1.57058406    
   2.50000000       4.33012676      -4.00000000       867.816895      -1.57058406    
   3.01776695       3.93283010      -4.00000000       867.816895      -1.57058406    
   3.01776695       3.93283010      -5.00000000       867.816895      -1.57058406    
   2.50000000       4.33012676      -4.00000000       888.622253      -1.57058561    
   2.50000000       4.33012676      -3.00000000       888.622253      -1.57058561    
   3.01776695       3.93283010      -3.00000000       888.622253      -1.57058561    
   3.01776695       3.93283010      -4.00000000       888.622253      -1.57058561    
   2.50000000       4.33012676      -3.00000000       904.065552      -1.57058644    
   2.50000000       4.33012676      -2.00000000       904.065552      -1.57058644    
   3.01776695       3.93283010      -2.00000000       904.065552      -1.57058644    
   3.01776695       3.93283010      -3.00000000       904.065552      -1.57058644    
   2.50000000       4.33012676      -2.00000000       915.305725      -1.57058680    
   2.50000000       4.33012676      -1.00000000       915.305725      -1.57058680    
   3.01776695       3.93283010      -1.00000000       915.305725      -1.57058680    
   3.01776695       3.93283010      -2.00000000       915.305725      -1.57058680    
   2.50000000       4.33012676      -1.00000000       923.090332      -1.57058692    
   2.50000000       4.33012676       0.00000000       923.090332      -1.57058692    
   3.01776695       3.93283010       0.00000000       923.090332      -1.57058692    
   3.01776695       3.93283010      -1.00000000       923.090332      -1.57058692    
   3.01776695       3.93283010      -10.0000000       489.722168      -1.57052219    
   3.01776695       3.93283010      -9.00000000       489.722168      -1.57052219    
   3.53553391       3.53553391      -9.00000000       489.722168      -1.57052219    
   3.53553391       3.53553391      -10.0000000       489.722168      -1.57052219    
   3.01776695       3.93283010      -9.00000000       614.804688      -1.57055736    
   3.01776695       3.93283010      -8.00000000       614.804688      -1.57055736    
   3.53553391       3.53553391      -8.00000000       614.804688      -1.57055736    
   3.53553391       3.53553391      -9.00000000       614.804688      -1.57055736    
   3.01776695       3.93283010      -8.00000000       685.520569      -1.57057095    
   3.01776695       3.93283010      -7.00000000       685.520569      -1.57057095    
   3.53553391       3.53553391      -7.00000000       685.520569      -1.57057095    
   3.53553391       3.53553391      -8.00000000       685.520569      -1.57057095    
   3.01776695       3.93283010      -7.00000000       733.312378      -1.57057834    
   3.01776695       3.93283010      -6.00000000       733.312378      -1.57057834    
   3.53553391       3.53553391      -6.00000000       733.312378      -1.57057834    
   3.53553391       3.53553391      -7.00000000       733.312378      -1.57057834    
   3.01776695       3.93283010      -6.00000000       767.580261      -1.57058263    
   3.01776695       3.93283010      -5.00000000       767.580261      -1.57058263    
   3.53553391       3.53553391      -5.00000000       767.580261      -1.57058263    
   3.53553391       3.53553391      -6.00000000       767.580261      -1.57058263    
   3.01776695       3.93283010      -5.00000000       792.895752      -1.57058537    
   3.01776695       3.93283010      -4.00000000       792.895752      -1.57058537    
   3.53553391       3.53553391      -4.00000000       792.895752      -1.57058537    
   3.53553391       3.53553391      -5.00000000       792.895752      -1.57058537    
   3.01776695       3.93283010      -4.00000000       811.800659      -1.57058680    
   3.01776695       3.93283010      -3.00000000       811.800659      -1.57058680    
   3.53553391       3.53553391      -3.00000000       811.800659      -1.57058680    
   3.53553391       3.53553391      -4.00000000       811.800659      -1.57058680    
   3.01776695       3.93283010      -3.00000000       825.828735      -1.57058775    
   3.01776695       3.93283010      -2.00000000       825.828735      -1.57058775    
   3.53553391       3.53553391      -2.00000000       825.828735      -1.57058775    
   3.53553391       3.53553391      -3.00000000       825.828735      -1.57058775    
   3.01776695       3.93283010      -2.00000000       836.039185      -1.57058799    
   3.01776695       3.93283010      -1.00000000       836.039185      -1.57058799    
   3.53553391       3.53553391      -1.00000000       836.039185      -1.57058799    
   3.53553391       3.53553391      -2.00000000       836.039185      -1.57058799    
   3.01776695       3.93283010      -1.00000000       843.067139      -1.57058811    
   3.01776695       3.93283010       0.00000000       843.067139      -1.57058811    
   3.53553391       3.53553391       0.00000000       843.067139      -1.57058811    
   3.53553391       3.53553391      -1.00000000       843.067139      -1.57058811    
   1.29409504       4.82962894      -10.0000000       610.336121      -1.57052016    
   1.29409504       4.82962894      -9.00000000       610.336121      -1.57052016    
   1.89704800       4.57987785      -9.00000000       610.336121      -1.57052016    
   1.89704800       4.57987785      -10.0000000       610.336121      -1.57052016    
   1.29409504       4.82962894      -9.00000000       767.048706      -1.57055581    
   1.29409504       4.82962894      -8.00000000       767.048706      -1.57055581    
   1.89704800       4.57987785      -8.00000000       767.048706      -1.57055581    
   1.89704800       4.57987785      -9.00000000       767.048706      -1.57055581    
   1.29409504       4.82962894      -8.00000000       855.780945      -1.57056975    
   1.29409504       4.82962894      -7.00000000       855.780945      -1.57056975    
   1.89704800       4.57987785      -7.00000000       855.780945      -1.57056975    
   1.89704800       4.57987785      -8.00000000       855.780945      -1.57056975    
   1.29409504       4.82962894      -7.00000000       915.747253      -1.57057726    
   1.29409504       4.82962894      -6.00000000       915.747253      -1.57057726    
   1.89704800       4.57987785      -6.00000000       915.747253      -1.57057726    
   1.89704800       4.57987785      -7.00000000       915.747253      -1.57057726    
   1.29409504       4.82962894      -6.00000000       958.751160      -1.57058167    
   1.29409504       4.82962894      -5.00000000       958.751160      -1.57058167    
   1.89704800       4.57987785      -5.00000000       958.751160      -1.57058167    
   1.89704800       4.57987785      -6.00000000       958.751160      -1.57058167    
   1.29409504       4.82962894      -5.00000000       990.518433      -1.57058430    
   1.29409504       4.82962894      -4.00000000       990.518433      -1.57058430    
   1.89704800       4.57987785      -4.00000000       990.518433      -1.57058430    
   1.89704800       4.57987785      -5.00000000       990.518433      -1.57058430    
   1.29409504       4.82962894      -4.00000000       1014.23779      -1.57058585    
   1.29409504       4.82962894      -3.00000000       1014.23779      -1.57058585    
   1.89704800       4.57987785      -3.00000000       1014.23779      -1.57058585    