 VARIABLES="X" "Y" "Z" "abs(p) (Pa)" "angle(p) (rad)"
ZONE N=   1080,E =     600, F=FEPOINT, ET=QUADRILATERAL
   4.82962894       1.29409504      -10.0000000       650.509888      -2.85941887    
   4.82962894       1.29409504      -9.00000000       650.509888      -2.85941887    
   4.91481400      0.647047520      -9.00000000       650.509888      -2.85941887    
   4.91481400      0.647047520      -10.0000000       650.509888      -2.85941887    
   4.82962894       1.29409504      -9.00000000       937.472656      -2.83458090    
   4.82962894       1.29409504      -8.00000000       937.472656      -2.83458090    
   4.91481400      0.647047520      -8.00000000       937.472656      -2.83458090    
   4.91481400      0.647047520      -9.00000000       937.472656      -2.83458090    
   4.82962894       1.29409504      -8.00000000       1205.63318       3.12813115    
   4.82962894       1.29409504      -7.00000000       1205.63318       3.12813115    
   4.91481400      0.647047520      -7.00000000       1205.63318       3.12813115    
   4.91481400      0.647047520      -8.00000000       1205.63318       3.12813115    
   4.82962894       1.29409504      -7.00000000       1663.23120       2.85862780    
   4.82962894       1.29409504      -6.00000000       1663.23120       2.85862780    
   4.91481400      0.647047520      -6.00000000       1663.23120       2.85862780    
   4.91481400      0.647047520      -7.00000000       1663.23120       2.85862780    
   4.82962894       1.29409504      -6.00000000       2316.73486       2.70432568    
   4.82962894       1.29409504      -5.00000000       2316.73486       2.70432568    
   4.91481400      0.647047520      -5.00000000       2316.73486       2.70432568    
   4.91481400      0.647047520      -6.00000000       2316.73486       2.70432568    
   4.82962894       1.29409504      -5.00000000       3145.23633       2.63337064    
   4.82962894       1.29409504      -4.00000000       3145.23633       2.63337064    
   4.91481400      0.647047520      -4.00000000       3145.23633       2.63337064    
   4.91481400      0.647047520      -5.00000000       3145.23633       2.63337064    
   4.82962894       1.29409504      -4.00000000       4157.14111       2.61300611    
   4.82962894       1.29409504      -3.00000000       4157.14111       2.61300611    
   4.91481400      0.647047520      -3.00000000       4157.14111       2.61300611    
   4.91481400      0.647047520      -4.00000000       4157.14111       2.61300611    
   4.82962894       1.29409504      -3.00000000       5397.68018       2.62120080    
   4.82962894       1.29409504      -2.00000000       5397.68018       2.62120080    
   4.91481400      0.647047520      -2.00000000       5397.68018       2.62120080    
   4.91481400      0.647047520      -3.00000000       5397.68018       2.62120080    
   4.82962894       1.29409504      -2.00000000       6954.74219       2.64195752    
   4.82962894       1.29409504      -1.00000000       6954.74219       2.64195752    
   4.91481400      0.647047520      -1.00000000       6954.74219       2.64195752    
   4.91481400      0.647047520      -2.00000000       6954.74219       2.64195752    
   4.82962894       1.29409504      -1.00000000       8964.24512       2.66176391    
   4.82962894       1.29409504       0.00000000       8964.24512       2.66176391    
   4.91481400      0.647047520       0.00000000       8964.24512       2.66176391    
   4.91481400      0.647047520      -1.00000000       8964.24512       2.66176391    
   4.91481400      0.647047520      -10.0000000       252.256042      -2.63860130    
   4.91481400      0.647047520      -9.00000000       252.256042      -2.63860130    
   5.00000000       0.00000000      -9.00000000       252.256042      -2.63860130    
   5.00000000       0.00000000      -10.0000000       252.256042      -2.63860130    
   4.91481400      0.647047520      -9.00000000       344.141418      -2.74569535    
   4.91481400      0.647047520      -8.00000000       344.141418      -2.74569535    
   5.00000000       0.00000000      -8.00000000       344.141418      -2.74569535    
   5.00000000       0.00000000      -9.00000000       344.141418      -2.74569535    
   4.91481400      0.647047520      -8.00000000       428.529327       3.12531853    
   4.91481400      0.647047520      -7.00000000       428.529327       3.12531853    
   5.00000000       0.00000000      -7.00000000       428.529327       3.12531853    
   5.00000000       0.00000000      -8.00000000       428.529327       3.12531853    
   4.91481400      0.647047520      -7.00000000       601.833191       2.80335212    
   4.91481400      0.647047520      -6.00000000       601.833191       2.80335212    
   5.00000000       0.00000000      -6.00000000       601.833191       2.80335212    
   5.00000000       0.00000000      -7.00000000       601.833191       2.80335212    
   4.91481400      0.647047520      -6.00000000       854.847473       2.63166523    
   4.91481400      0.647047520      -5.00000000       854.847473       2.63166523    
   5.00000000       0.00000000      -5.00000000       854.847473       2.63166523    
   5.00000000       0.00000000      -6.00000000       854.847473       2.63166523    
   4.91481400      0.647047520      -5.00000000       1171.32166       2.55703568    
   4.91481400      0.647047520      -4.00000000       1171.32166       2.55703568    
   5.00000000       0.00000000      -4.00000000       1171.32166       2.55703568    
   5.00000000       0.00000000      -5.00000000       1171.32166       2.55703568    
   4.91481400      0.647047520      -4.00000000       1551.50220       2.53684115    
   4.91481400      0.647047520      -3.00000000       1551.50220       2.53684115    
   5.00000000       0.00000000      -3.00000000       1551.50220       2.53684115    
   5.00000000       0.00000000      -4.00000000       1551.50220       2.53684115    
   4.91481400      0.647047520      -3.00000000       2009.50049       2.54733634    
   4.91481400      0.647047520      -2.00000000       2009.50049       2.54733634    
   5.00000000       0.00000000      -2.00000000       2009.50049       2.54733634    
   5.00000000       0.00000000      -3.00000000       2009.50049       2.54733634    
   4.91481400      0.647047520      -2.00000000       2577.36255       2.57194114    
   4.91481400      0.647047520      -1.00000000       2577.36255       2.57194114    
   5.00000000       0.00000000      -1.00000000       2577.36255       2.57194114    
   5.00000000       0.00000000      -2.00000000       2577.36255       2.57194114    
   4.91481400      0.647047520      -1.00000000       3302.07422       2.59758377    
   4.91481400      0.647047520       0.00000000       3302.07422       2.59758377    
   5.00000000       0.00000000       0.00000000       3302.07422       2.59758377    
   5.00000000       0.00000000      -1.00000000       3302.07422       2.59758377    
   4.33012676       2.50000000      -10.0000000       1503.83740      -2.82266879    
   4.33012676       2.50000000      -9.00000000       1503.83740      -2.82266879    
   4.57987785       1.89704800      -9.00000000       1503.83740      -2.82266879    
   4.57987785       1.89704800      -10.0000000       1503.83740      -2.82266879    
   4.33012676       2.50000000      -9.00000000       2154.05542      -2.82039881    
   4.33012676       2.50000000      -8.00000000       2154.05542      -2.82039881    
   4.57987785       1.89704800      -8.00000000       2154.05542      -2.82039881    
   4.57987785       1.89704800      -9.00000000       2154.05542      -2.82039881    
   4.33012676       2.50000000      -8.00000000       2757.63477       3.12769914    
   4.33012676       2.50000000      -7.00000000       2757.63477       3.12769914    
   4.57987785       1.89704800      -7.00000000       2757.63477       3.12769914    
   4.57987785       1.89704800      -8.00000000       2757.63477       3.12769914    
   4.33012676       2.50000000      -7.00000000       3814.17578       2.84991002    
   4.33012676       2.50000000      -6.00000000       3814.17578       2.84991002    
   4.57987785       1.89704800      -6.00000000       3814.17578       2.84991002    
   4.57987785       1.89704800      -7.00000000       3814.17578       2.84991002    
   4.33012676       2.50000000      -6.00000000       5328.54590       2.69267774    
   4.33012676       2.50000000      -5.00000000       5328.54590       2.69267774    
   4.57987785       1.89704800      -5.00000000       5328.54590       2.69267774    
   4.57987785       1.89704800      -6.00000000       5328.54590       2.69267774    
   4.33012676       2.50000000      -5.00000000       7244.59717       2.62104034    
   4.33012676       2.50000000      -4.00000000       7244.59717       2.62104034    
   4.57987785       1.89704800      -4.00000000       7244.59717       2.62104034    
   4.57987785       1.89704800      -5.00000000       7244.59717       2.62104034    
   4.33012676       2.50000000      -4.00000000       9578.71094       2.60068059    
   4.33012676       2.50000000      -3.00000000       9578.71094       2.60068059    
   4.57987785       1.89704800      -3.00000000       9578.71094       2.60068059    
   4.57987785       1.89704800      -4.00000000       9578.71094       2.60068059    
   4.33012676       2.50000000      -3.00000000       12432.4238       2.60927105    
   4.33012676       2.50000000      -2.00000000       12432.4238       2.60927105    
   4.57987785       1.89704800      -2.00000000       12432.4238       2.60927105    
   4.57987785       1.89704800      -3.00000000       12432.4238       2.60927105    
   4.33012676       2.50000000      -2.00000000       16007.5918       2.63069320    
   4.33012676       2.50000000      -1.00000000       16007.5918       2.63069320    
   4.57987785       1.89704800      -1.00000000       16007.5918       2.63069320    
   4.57987785       1.89704800      -2.00000000       16007.5918       2.63069320    
   4.33012676       2.50000000      -1.00000000       20613.9902       2.65148973    
   4.33012676       2.50000000       0.00000000       20613.9902       2.65148973    
   4.57987785       1.89704800       0.00000000       20613.9902       2.65148973    
   4.57987785       1.89704800      -1.00000000       20613.9902       2.65148973    
   4.57987785       1.89704800      -10.0000000       1131.04443      -2.76491213    
   4.57987785       1.89704800      -9.00000000       1131.04443      -2.76491213    
   4.82962894       1.29409504      -9.00000000       1131.04443      -2.76491213    
   4.82962894       1.29409504      -10.0000000       1131.04443      -2.76491213    
   4.57987785       1.89704800      -9.00000000       1600.76318      -2.79770660    
   4.57987785       1.89704800      -8.00000000       1600.76318      -2.79770660    
   4.82962894       1.29409504      -8.00000000       1600.76318      -2.79770660    
   4.82962894       1.29409504      -9.00000000       1600.76318      -2.79770660    
   4.57987785       1.89704800      -8.00000000       2033.48669       3.12698960    
   4.57987785       1.89704800      -7.00000000       2033.48669       3.12698960    
   4.82962894       1.29409504      -7.00000000       2033.48669       3.12698960    
   4.82962894       1.29409504      -8.00000000       2033.48669       3.12698960    
   4.57987785       1.89704800      -7.00000000       2824.83594       2.83588648    
   4.57987785       1.89704800      -6.00000000       2824.83594       2.83588648    
   4.82962894       1.29409504      -6.00000000       2824.83594       2.83588648    
   4.82962894       1.29409504      -7.00000000       2824.83594       2.83588648    
   4.57987785       1.89704800      -6.00000000       3965.63208       2.67408800    
   4.57987785       1.89704800      -5.00000000       3965.63208       2.67408800    
   4.82962894       1.29409504      -5.00000000       3965.63208       2.67408800    
   4.82962894       1.29409504      -6.00000000       3965.63208       2.67408800    
   4.57987785       1.89704800      -5.00000000       5404.22363       2.60143352    
   4.57987785       1.89704800      -4.00000000       5404.22363       2.60143352    
   4.82962894       1.29409504      -4.00000000       5404.22363       2.60143352    
   4.82962894       1.29409504      -5.00000000       5404.22363       2.60143352    
   4.57987785       1.89704800      -4.00000000       7149.36719       2.58110023    
   4.57987785       1.89704800      -3.00000000       7149.36719       2.58110023    
   4.82962894       1.29409504      -3.00000000       7149.36719       2.58110023    
   4.82962894       1.29409504      -4.00000000       7149.36719       2.58110023    
   4.57987785       1.89704800      -3.00000000       9273.58105       2.59030175    
   4.57987785       1.89704800      -2.00000000       9273.58105       2.59030175    
   4.82962894       1.29409504      -2.00000000       9273.58105       2.59030175    
   4.82962894       1.29409504      -3.00000000       9273.58105       2.59030175    
   4.57987785       1.89704800      -2.00000000       11926.7207       2.61274767    
   4.57987785       1.89704800      -1.00000000       11926.7207       2.61274767    
   4.82962894       1.29409504      -1.00000000       11926.7207       2.61274767    
   4.82962894       1.29409504      -2.00000000       11926.7207       2.61274767    
   4.57987785       1.89704800      -1.00000000       15335.7080       2.63508272    
   4.57987785       1.89704800       0.00000000       15335.7080       2.63508272    
   4.82962894       1.29409504       0.00000000       15335.7080       2.63508272    
   4.82962894       1.29409504      -1.00000000       15335.7080       2.63508272    
   3.53553391       3.53553391      -10.0000000       2255.24316      -2.81207204    
   3.53553391       3.53553391      -9.00000000       2255.24316      -2.81207204    
   3.93283010       3.01776695      -9.00000000       2255.24316      -2.81207204    
   3.93283010       3.01776695      -10.0000000       2255.24316      -2.81207204    
   3.53553391       3.53553391      -9.00000000       3223.96777      -2.81627226    
   3.53553391       3.53553391      -8.00000000       3223.96777      -2.81627226    
   3.93283010       3.01776695      -8.00000000       3223.96777      -2.81627226    
   3.93283010       3.01776695      -9.00000000       3223.96777      -2.81627226    
   3.53553391       3.53553391      -8.00000000       4121.70898       3.12756896    
   3.53553391       3.53553391      -7.00000000       4121.70898       3.12756896    
   3.93283010       3.01776695      -7.00000000       4121.70898       3.12756896    
   3.93283010       3.01776695      -8.00000000       4121.70898       3.12756896    
   3.53553391       3.53553391      -7.00000000       5705.26709       2.84736896    
   3.53553391       3.53553391      -6.00000000       5705.26709       2.84736896    
   3.93283010       3.01776695      -6.00000000       5705.26709       2.84736896    
   3.93283010       3.01776695      -7.00000000       5705.26709       2.84736896    
   3.53553391       3.53553391      -6.00000000       7977.42334       2.68929577    
   3.53553391       3.53553391      -5.00000000       7977.42334       2.68929577    
   3.93283010       3.01776695      -5.00000000       7977.42334       2.68929577    
   3.93283010       3.01776695      -6.00000000       7977.42334       2.68929577    
   3.53553391       3.53553391      -5.00000000       10850.5557       2.61746669    
   3.53553391       3.53553391      -4.00000000       10850.5557       2.61746669    
   3.93283010       3.01776695      -4.00000000       10850.5557       2.61746669    
   3.93283010       3.01776695      -5.00000000       10850.5557       2.61746669    
   3.53553391       3.53553391      -4.00000000       14347.9131       2.59710956    
   3.53553391       3.53553391      -3.00000000       14347.9131       2.59710956    
   3.93283010       3.01776695      -3.00000000       14347.9131       2.59710956    
   3.93283010       3.01776695      -4.00000000       14347.9131       2.59710956    
   3.53553391       3.53553391      -3.00000000       18620.4258       2.60581422    
   3.53553391       3.53553391      -2.00000000       18620.4258       2.60581422    
   3.93283010       3.01776695      -2.00000000       18620.4258       2.60581422    
   3.93283010       3.01776695      -3.00000000       18620.4258       2.60581422    
   3.53553391       3.53553391      -2.00000000       23970.1348       2.62742496    
   3.53553391       3.53553391      -1.00000000       23970.1348       2.62742496    
   3.93283010       3.01776695      -1.00000000       23970.1348       2.62742496    
   3.93283010       3.01776695      -2.00000000       23970.1348       2.62742496    
   3.53553391       3.53553391      -1.00000000       30859.5000       2.64850473    
   3.53553391       3.53553391       0.00000000       30859.5000       2.64850473    
   3.93283010       3.01776695       0.00000000       30859.5000       2.64850473    
   3.93283010       3.01776695      -1.00000000       30859.5000       2.64850473    
   3.93283010       3.01776695      -10.0000000       1935.02698      -2.78133202    
   3.93283010       3.01776695      -9.00000000       1935.02698      -2.78133202    
   4.33012676       2.50000000      -9.00000000       1935.02698      -2.78133202    
   4.33012676       2.50000000      -10.0000000       1935.02698      -2.78133202    
   3.93283010       3.01776695      -9.00000000       2748.82349      -2.80421376    
   3.93283010       3.01776695      -8.00000000       2748.82349      -2.80421376    
   4.33012676       2.50000000      -8.00000000       2748.82349      -2.80421376    
   4.33012676       2.50000000      -9.00000000       2748.82349      -2.80421376    
   3.93283010       3.01776695      -8.00000000       3499.86987       3.12719393    
   3.93283010       3.01776695      -7.00000000       3499.86987       3.12719393    
   4.33012676       2.50000000      -7.00000000       3499.86987       3.12719393    
   4.33012676       2.50000000      -8.00000000       3499.86987       3.12719393    
   3.93283010       3.01776695      -7.00000000       4855.68945       2.83991838    
   3.93283010       3.01776695      -6.00000000       4855.68945       2.83991838    
   4.33012676       2.50000000      -6.00000000       4855.68945       2.83991838    
   4.33012676       2.50000000      -7.00000000       4855.68945       2.83991838    
   3.93283010       3.01776695      -6.00000000       6807.02979       2.67941427    
   3.93283010       3.01776695      -5.00000000       6807.02979       2.67941427    
   4.33012676       2.50000000      -5.00000000       6807.02979       2.67941427    
   4.33012676       2.50000000      -6.00000000       6807.02979       2.67941427    
   3.93283010       3.01776695      -5.00000000       9270.13867       2.60704207    
   3.93283010       3.01776695      -4.00000000       9270.13867       2.60704207    
   4.33012676       2.50000000      -4.00000000       9270.13867       2.60704207    
   4.33012676       2.50000000      -5.00000000       9270.13867       2.60704207    
   3.93283010       3.01776695      -4.00000000       12261.7158       2.58669877    
   3.93283010       3.01776695      -3.00000000       12261.7158       2.58669877    
   4.33012676       2.50000000      -3.00000000       12261.7158       2.58669877    
   4.33012676       2.50000000      -4.00000000       12261.7158       2.58669877    
   3.93283010       3.01776695      -3.00000000       15907.7822       2.59572816    
   3.93283010       3.01776695      -2.00000000       15907.7822       2.59572816    
   4.33012676       2.50000000      -2.00000000       15907.7822       2.59572816    
   4.33012676       2.50000000      -3.00000000       15907.7822       2.59572816    
   3.93283010       3.01776695      -2.00000000       20465.7031       2.61788464    
   3.93283010       3.01776695      -1.00000000       20465.7031       2.61788464    
   4.33012676       2.50000000      -1.00000000       20465.7031       2.61788464    
   4.33012676       2.50000000      -2.00000000       20465.7031       2.61788464    
   3.93283010       3.01776695      -1.00000000       26326.8398       2.63978434    
   3.93283010       3.01776695       0.00000000       26326.8398       2.63978434    
   4.33012676       2.50000000       0.00000000       26326.8398       2.63978434    
   4.33012676       2.50000000      -1.00000000       26326.8398       2.63978434    
   2.50000000       4.33012676      -10.0000000       2853.09131      -2.80648446    
   2.50000000       4.33012676      -9.00000000       2853.09131      -2.80648446    
   3.01776695       3.93283010      -9.00000000       2853.09131      -2.80648446    
   3.01776695       3.93283010      -10.0000000       2853.09131      -2.80648446    
   2.50000000       4.33012676      -9.00000000       4074.19727      -2.81409383    
   2.50000000       4.33012676      -8.00000000       4074.19727      -2.81409383    
   3.01776695       3.93283010      -8.00000000       4074.19727      -2.81409383    
   3.01776695       3.93283010      -9.00000000       4074.19727      -2.81409383    
   2.50000000       4.33012676      -8.00000000       5204.89307       3.12750149    
   2.50000000       4.33012676      -7.00000000       5204.89307       3.12750149    
   3.01776695       3.93283010      -7.00000000       5204.89307       3.12750149    
   3.01776695       3.93283010      -8.00000000       5204.89307       3.12750149    
   2.50000000       4.33012676      -7.00000000       7207.58057       2.84602332    
   2.50000000       4.33012676      -6.00000000       7207.58057       2.84602332    
   3.01776695       3.93283010      -6.00000000       7207.58057       2.84602332    
   3.01776695       3.93283010      -7.00000000       7207.58057       2.84602332    
   2.50000000       4.33012676      -6.00000000       10082.7021       2.68750715    
   2.50000000       4.33012676      -5.00000000       10082.7021       2.68750715    
   3.01776695       3.93283010      -5.00000000       10082.7021       2.68750715    
   3.01776695       3.93283010      -6.00000000       10082.7021       2.68750715    
   2.50000000       4.33012676      -5.00000000       13717.1367       2.61557865    
   2.50000000       4.33012676      -4.00000000       13717.1367       2.61557865    
   3.01776695       3.93283010      -4.00000000       13717.1367       2.61557865    
   3.01776695       3.93283010      -5.00000000       13717.1367       2.61557865    
   2.50000000       4.33012676      -4.00000000       18139.4316       2.59522414    
   2.50000000       4.33012676      -3.00000000       18139.4316       2.59522414    
   3.01776695       3.93283010      -3.00000000       18139.4316       2.59522414    
   3.01776695       3.93283010      -4.00000000       18139.4316       2.59522414    
   2.50000000       4.33012676      -3.00000000       23539.5723       2.60398722    
   2.50000000       4.33012676      -2.00000000       23539.5723       2.60398722    
   3.01776695       3.93283010      -2.00000000       23539.5723       2.60398722    
   3.01776695       3.93283010      -3.00000000       23539.5723       2.60398722    
   2.50000000       4.33012676      -2.00000000       30299.2656       2.62569833    
   2.50000000       4.33012676      -1.00000000       30299.2656       2.62569833    
   3.01776695       3.93283010      -1.00000000       30299.2656       2.62569833    
   3.01776695       3.93283010      -2.00000000       30299.2656       2.62569833    
   2.50000000       4.33012676      -1.00000000       39002.1523       2.64692760    
   2.50000000       4.33012676       0.00000000       39002.1523       2.64692760    
   3.01776695       3.93283010       0.00000000       39002.1523       2.64692760    
   3.01776695       3.93283010      -1.00000000       39002.1523       2.64692760    
   3.01776695       3.93283010      -10.0000000       2607.35815      -2.78845739    
   3.01776695       3.93283010      -9.00000000       2607.35815      -2.78845739    
   3.53553391       3.53553391      -9.00000000       2607.35815      -2.78845739    
   3.53553391       3.53553391      -10.0000000       2607.35815      -2.78845739    
   3.01776695       3.93283010      -9.00000000       3709.59863      -2.80702186    
   3.01776695       3.93283010      -8.00000000       3709.59863      -2.80702186    
   3.53553391       3.53553391      -8.00000000       3709.59863      -2.80702186    
   3.53553391       3.53553391      -9.00000000       3709.59863      -2.80702186    
   3.01776695       3.93283010      -8.00000000       4727.73730       3.12728143    
   3.01776695       3.93283010      -7.00000000       4727.73730       3.12728143    
   3.53553391       3.53553391      -7.00000000       4727.73730       3.12728143    
   3.53553391       3.53553391      -8.00000000       4727.73730       3.12728143    
   3.01776695       3.93283010      -7.00000000       6555.67188       2.84165525    
   3.01776695       3.93283010      -6.00000000       6555.67188       2.84165525    
   3.53553391       3.53553391      -6.00000000       6555.67188       2.84165525    
   3.53553391       3.53553391      -7.00000000       6555.67188       2.84165525    
   3.01776695       3.93283010      -6.00000000       9184.61816       2.68171358    
   3.01776695       3.93283010      -5.00000000       9184.61816       2.68171358    
   3.53553391       3.53553391      -5.00000000       9184.61816       2.68171358    
   3.53553391       3.53553391      -6.00000000       9184.61816       2.68171358    
   3.01776695       3.93283010      -5.00000000       12504.4336       2.60946584    
   3.01776695       3.93283010      -4.00000000       12504.4336       2.60946584    
   3.53553391       3.53553391      -4.00000000       12504.4336       2.60946584    
   3.53553391       3.53553391      -5.00000000       12504.4336       2.60946584    
   3.01776695       3.93283010      -4.00000000       16538.6191       2.58911872    
   3.01776695       3.93283010      -3.00000000       16538.6191       2.58911872    
   3.53553391       3.53553391      -3.00000000       16538.6191       2.58911872    
   3.53553391       3.53553391      -4.00000000       16538.6191       2.58911872    
   3.01776695       3.93283010      -3.00000000       21458.0684       2.59807301    
   3.01776695       3.93283010      -2.00000000       21458.0684       2.59807301    
   3.53553391       3.53553391      -2.00000000       21458.0684       2.59807301    
   3.53553391       3.53553391      -3.00000000       21458.0684       2.59807301    
   3.01776695       3.93283010      -2.00000000       27610.1875       2.62010360    
   3.01776695       3.93283010      -1.00000000       27610.1875       2.62010360    
   3.53553391       3.53553391      -1.00000000       27610.1875       2.62010360    
   3.53553391       3.53553391      -2.00000000       27610.1875       2.62010360    
   3.01776695       3.93283010      -1.00000000       35524.0938       2.64181423    
   3.01776695       3.93283010       0.00000000       35524.0938       2.64181423    
   3.53553391       3.53553391       0.00000000       35524.0938       2.64181423    
   3.53553391       3.53553391      -1.00000000       35524.0938       2.64181423    
   1.29409504       4.82962894      -10.0000000       3256.56104      -2.80261779    
   1.29409504       4.82962894      -9.00000000       3256.56104      -2.80261779    
   1.89704800       4.57987785      -9.00000000       3256.56104      -2.80261779    
   1.89704800       4.57987785      -10.0000000       3256.56104      -2.80261779    
   1.29409504       4.82962894      -9.00000000       4646.78955      -2.81258035    
   1.29409504       4.82962894      -8.00000000       4646.78955      -2.81258035    
   1.89704800       4.57987785      -8.00000000       4646.78955      -2.81258035    
   1.89704800       4.57987785      -9.00000000       4646.78955      -2.81258035    
   1.29409504       4.82962894      -8.00000000       5933.37012       3.12745523    
   1.29409504       4.82962894      -7.00000000       5933.37012       3.12745523    
   1.89704800       4.57987785      -7.00000000       5933.37012       3.12745523    
   1.89704800       4.57987785      -8.00000000       5933.37012       3.12745523    
   1.29409504       4.82962894      -7.00000000       8218.70898       2.84508967    
   1.29409504       4.82962894      -6.00000000       8218.70898       2.84508967    
   1.89704800       4.57987785      -6.00000000       8218.70898       2.84508967    
   1.89704800       4.57987785      -7.00000000       8218.70898       2.84508967    
   1.29409504       4.82962894      -6.00000000       11500.8838       2.68626785    
   1.29409504       4.82962894      -5.00000000       11500.8838       2.68626785    
   1.89704800       4.57987785      -5.00000000       11500.8838       2.68626785    
   1.89704800       4.57987785      -6.00000000       11500.8838       2.68626785    
   1.29409504       4.82962894      -5.00000000       15648.9590       2.61426973    
   1.29409504       4.82962894      -4.00000000       15648.9590       2.61426973    
   1.89704800       4.57987785      -4.00000000       15648.9590       2.61426973    
   1.89704800       4.57987785      -5.00000000       15648.9590       2.61426973    
   1.29409504       4.82962894      -4.00000000       20694.8164       2.59391689    
   1.29409504       4.82962894      -3.00000000       20694.8164       2.59391689    
   1.89704800       4.57987785      -3.00000000       20694.8164       2.59391689    