 VARIABLES="X" "Y" "Z" "abs(p) (Pa)" "angle(p) (rad)"
ZONE N=   1080,E =     600, F=FEPOINT, ET=QUADRILATERAL
   4.82962894       1.29409504      -10.0000000       267.845764      -1.57079327    
   4.82962894       1.29409504      -9.00000000       267.845764      -1.57079327    
   4.91481400      0.647047520      -9.00000000       267.845764      -1.57079327    
   4.91481400      0.647047520      -10.0000000       267.845764      -1.57079327    
   4.82962894       1.29409504      -9.00000000       328.398560      -1.57079363    
   4.82962894       1.29409504      -8.00000000       328.398560      -1.57079363    
   4.91481400      0.647047520      -8.00000000       328.398560      -1.57079363    
   4.91481400      0.647047520      -9.00000000       328.398560      -1.57079363    
   4.82962894       1.29409504      -8.00000000       510.848328      -1.57079446    
   4.82962894       1.29409504      -7.00000000       510.848328      -1.57079446    
   4.91481400      0.647047520      -7.00000000       510.848328      -1.57079446    
   4.91481400      0.647047520      -8.00000000       510.848328      -1.57079446    
   4.82962894       1.29409504      -7.00000000       741.450012      -1.57079506    
   4.82962894       1.29409504      -6.00000000       741.450012      -1.57079506    
   4.91481400      0.647047520      -6.00000000       741.450012      -1.57079506    
   4.91481400      0.647047520      -7.00000000       741.450012      -1.57079506    
   4.82962894       1.29409504      -6.00000000       994.773315      -1.57079530    
   4.82962894       1.29409504      -5.00000000       994.773315      -1.57079530    
   4.91481400      0.647047520      -5.00000000       994.773315      -1.57079530    
   4.91481400      0.647047520      -6.00000000       994.773315      -1.57079530    
   4.82962894       1.29409504      -5.00000000       1255.51697      -1.57079554    
   4.82962894       1.29409504      -4.00000000       1255.51697      -1.57079554    
   4.91481400      0.647047520      -4.00000000       1255.51697      -1.57079554    
   4.91481400      0.647047520      -5.00000000       1255.51697      -1.57079554    
   4.82962894       1.29409504      -4.00000000       1510.36755      -1.57079566    
   4.82962894       1.29409504      -3.00000000       1510.36755      -1.57079566    
   4.91481400      0.647047520      -3.00000000       1510.36755      -1.57079566    
   4.91481400      0.647047520      -4.00000000       1510.36755      -1.57079566    
   4.82962894       1.29409504      -3.00000000       1745.75842      -1.57079577    
   4.82962894       1.29409504      -2.00000000       1745.75842      -1.57079577    
   4.91481400      0.647047520      -2.00000000       1745.75842      -1.57079577    
   4.91481400      0.647047520      -3.00000000       1745.75842      -1.57079577    
   4.82962894       1.29409504      -2.00000000       1945.60852      -1.57079577    
   4.82962894       1.29409504      -1.00000000       1945.60852      -1.57079577    
   4.91481400      0.647047520      -1.00000000       1945.60852      -1.57079577    
   4.91481400      0.647047520      -2.00000000       1945.60852      -1.57079577    
   4.82962894       1.29409504      -1.00000000       2079.74805      -1.57079577    
   4.82962894       1.29409504       0.00000000       2079.74805      -1.57079577    
   4.91481400      0.647047520       0.00000000       2079.74805      -1.57079577    
   4.91481400      0.647047520      -1.00000000       2079.74805      -1.57079577    
   4.91481400      0.647047520      -10.0000000       273.013733      -1.57079327    
   4.91481400      0.647047520      -9.00000000       273.013733      -1.57079327    
   5.00000000       0.00000000      -9.00000000       273.013733      -1.57079327    
   5.00000000       0.00000000      -10.0000000       273.013733      -1.57079327    
   4.91481400      0.647047520      -9.00000000       334.251770      -1.57079363    
   4.91481400      0.647047520      -8.00000000       334.251770      -1.57079363    
   5.00000000       0.00000000      -8.00000000       334.251770      -1.57079363    
   5.00000000       0.00000000      -9.00000000       334.251770      -1.57079363    
   4.91481400      0.647047520      -8.00000000       519.330994      -1.57079446    
   4.91481400      0.647047520      -7.00000000       519.330994      -1.57079446    
   5.00000000       0.00000000      -7.00000000       519.330994      -1.57079446    
   5.00000000       0.00000000      -8.00000000       519.330994      -1.57079446    
   4.91481400      0.647047520      -7.00000000       753.359619      -1.57079506    
   4.91481400      0.647047520      -6.00000000       753.359619      -1.57079506    
   5.00000000       0.00000000      -6.00000000       753.359619      -1.57079506    
   5.00000000       0.00000000      -7.00000000       753.359619      -1.57079506    
   4.91481400      0.647047520      -6.00000000       1010.48279      -1.57079530    
   4.91481400      0.647047520      -5.00000000       1010.48279      -1.57079530    
   5.00000000       0.00000000      -5.00000000       1010.48279      -1.57079530    
   5.00000000       0.00000000      -6.00000000       1010.48279      -1.57079530    
   4.91481400      0.647047520      -5.00000000       1275.15198      -1.57079554    
   4.91481400      0.647047520      -4.00000000       1275.15198      -1.57079554    
   5.00000000       0.00000000      -4.00000000       1275.15198      -1.57079554    
   5.00000000       0.00000000      -5.00000000       1275.15198      -1.57079554    
   4.91481400      0.647047520      -4.00000000       1533.82129      -1.57079566    
   4.91481400      0.647047520      -3.00000000       1533.82129      -1.57079566    
   5.00000000       0.00000000      -3.00000000       1533.82129      -1.57079566    
   5.00000000       0.00000000      -4.00000000       1533.82129      -1.57079566    
   4.91481400      0.647047520      -3.00000000       1772.71387      -1.57079577    
   4.91481400      0.647047520      -2.00000000       1772.71387      -1.57079577    
   5.00000000       0.00000000      -2.00000000       1772.71387      -1.57079577    
   5.00000000       0.00000000      -3.00000000       1772.71387      -1.57079577    
   4.91481400      0.647047520      -2.00000000       1975.47375      -1.57079577    
   4.91481400      0.647047520      -1.00000000       1975.47375      -1.57079577    
   5.00000000       0.00000000      -1.00000000       1975.47375      -1.57079577    
   5.00000000       0.00000000      -2.00000000       1975.47375      -1.57079577    
   4.91481400      0.647047520      -1.00000000       2111.47119      -1.57079577    
   4.91481400      0.647047520       0.00000000       2111.47119      -1.57079577    
   5.00000000       0.00000000       0.00000000       2111.47119      -1.57079577    
   5.00000000       0.00000000      -1.00000000       2111.47119      -1.57079577    
   4.33012676       2.50000000      -10.0000000       244.424683      -1.57079315    
   4.33012676       2.50000000      -9.00000000       244.424683      -1.57079315    
   4.57987785       1.89704800      -9.00000000       244.424683      -1.57079315    
   4.57987785       1.89704800      -10.0000000       244.424683      -1.57079315    
   4.33012676       2.50000000      -9.00000000       300.165100      -1.57079363    
   4.33012676       2.50000000      -8.00000000       300.165100      -1.57079363    
   4.57987785       1.89704800      -8.00000000       300.165100      -1.57079363    
   4.57987785       1.89704800      -9.00000000       300.165100      -1.57079363    
   4.33012676       2.50000000      -8.00000000       467.553284      -1.57079446    
   4.33012676       2.50000000      -7.00000000       467.553284      -1.57079446    
   4.57987785       1.89704800      -7.00000000       467.553284      -1.57079446    
   4.57987785       1.89704800      -8.00000000       467.553284      -1.57079446    
   4.33012676       2.50000000      -7.00000000       679.012939      -1.57079506    
   4.33012676       2.50000000      -6.00000000       679.012939      -1.57079506    
   4.57987785       1.89704800      -6.00000000       679.012939      -1.57079506    
   4.57987785       1.89704800      -7.00000000       679.012939      -1.57079506    
   4.33012676       2.50000000      -6.00000000       911.271851      -1.57079530    
   4.33012676       2.50000000      -5.00000000       911.271851      -1.57079530    
   4.57987785       1.89704800      -5.00000000       911.271851      -1.57079530    
   4.57987785       1.89704800      -6.00000000       911.271851      -1.57079530    
   4.33012676       2.50000000      -5.00000000       1150.32141      -1.57079554    
   4.33012676       2.50000000      -4.00000000       1150.32141      -1.57079554    
   4.57987785       1.89704800      -4.00000000       1150.32141      -1.57079554    
   4.57987785       1.89704800      -5.00000000       1150.32141      -1.57079554    
   4.33012676       2.50000000      -4.00000000       1383.98657      -1.57079566    
   4.33012676       2.50000000      -3.00000000       1383.98657      -1.57079566    
   4.57987785       1.89704800      -3.00000000       1383.98657      -1.57079566    
   4.57987785       1.89704800      -4.00000000       1383.98657      -1.57079566    
   4.33012676       2.50000000      -3.00000000       1599.83374      -1.57079577    
   4.33012676       2.50000000      -2.00000000       1599.83374      -1.57079577    
   4.57987785       1.89704800      -2.00000000       1599.83374      -1.57079577    
   4.57987785       1.89704800      -3.00000000       1599.83374      -1.57079577    
   4.33012676       2.50000000      -2.00000000       1783.15088      -1.57079577    
   4.33012676       2.50000000      -1.00000000       1783.15088      -1.57079577    
   4.57987785       1.89704800      -1.00000000       1783.15088      -1.57079577    
   4.57987785       1.89704800      -2.00000000       1783.15088      -1.57079577    
   4.33012676       2.50000000      -1.00000000       1906.29602      -1.57079589    
   4.33012676       2.50000000       0.00000000       1906.29602      -1.57079589    
   4.57987785       1.89704800       0.00000000       1906.29602      -1.57079589    
   4.57987785       1.89704800      -1.00000000       1906.29602      -1.57079589    
   4.57987785       1.89704800      -10.0000000       259.575928      -1.57079327    
   4.57987785       1.89704800      -9.00000000       259.575928      -1.57079327    
   4.82962894       1.29409504      -9.00000000       259.575928      -1.57079327    
   4.82962894       1.29409504      -10.0000000       259.575928      -1.57079327    
   4.57987785       1.89704800      -9.00000000       317.326569      -1.57079363    
   4.57987785       1.89704800      -8.00000000       317.326569      -1.57079363    
   4.82962894       1.29409504      -8.00000000       317.326569      -1.57079363    
   4.82962894       1.29409504      -9.00000000       317.326569      -1.57079363    
   4.57987785       1.89704800      -8.00000000       492.421204      -1.57079446    
   4.57987785       1.89704800      -7.00000000       492.421204      -1.57079446    
   4.82962894       1.29409504      -7.00000000       492.421204      -1.57079446    
   4.82962894       1.29409504      -8.00000000       492.421204      -1.57079446    
   4.57987785       1.89704800      -7.00000000       713.928040      -1.57079506    
   4.57987785       1.89704800      -6.00000000       713.928040      -1.57079506    
   4.82962894       1.29409504      -6.00000000       713.928040      -1.57079506    
   4.82962894       1.29409504      -7.00000000       713.928040      -1.57079506    
   4.57987785       1.89704800      -6.00000000       957.328308      -1.57079530    
   4.57987785       1.89704800      -5.00000000       957.328308      -1.57079530    
   4.82962894       1.29409504      -5.00000000       957.328308      -1.57079530    
   4.82962894       1.29409504      -6.00000000       957.328308      -1.57079530    
   4.57987785       1.89704800      -5.00000000       1207.88635      -1.57079554    
   4.57987785       1.89704800      -4.00000000       1207.88635      -1.57079554    
   4.82962894       1.29409504      -4.00000000       1207.88635      -1.57079554    
   4.82962894       1.29409504      -5.00000000       1207.88635      -1.57079554    
   4.57987785       1.89704800      -4.00000000       1452.74792      -1.57079566    
   4.57987785       1.89704800      -3.00000000       1452.74792      -1.57079566    
   4.82962894       1.29409504      -3.00000000       1452.74792      -1.57079566    
   4.82962894       1.29409504      -4.00000000       1452.74792      -1.57079566    
   4.57987785       1.89704800      -3.00000000       1678.86255      -1.57079577    
   4.57987785       1.89704800      -2.00000000       1678.86255      -1.57079577    
   4.82962894       1.29409504      -2.00000000       1678.86255      -1.57079577    
   4.82962894       1.29409504      -3.00000000       1678.86255      -1.57079577    
   4.57987785       1.89704800      -2.00000000       1870.71741      -1.57079577    
   4.57987785       1.89704800      -1.00000000       1870.71741      -1.57079577    
   4.82962894       1.29409504      -1.00000000       1870.71741      -1.57079577    
   4.82962894       1.29409504      -2.00000000       1870.71741      -1.57079577    
   4.57987785       1.89704800      -1.00000000       1999.30078      -1.57079577    
   4.57987785       1.89704800       0.00000000       1999.30078      -1.57079577    
   4.82962894       1.29409504       0.00000000       1999.30078      -1.57079577    
   4.82962894       1.29409504      -1.00000000       1999.30078      -1.57079577    
   3.53553391       3.53553391      -10.0000000       204.346603      -1.57079315    
   3.53553391       3.53553391      -9.00000000       204.346603      -1.57079315    
   3.93283010       3.01776695      -9.00000000       204.346603      -1.57079315    
   3.93283010       3.01776695      -10.0000000       204.346603      -1.57079315    
   3.53553391       3.53553391      -9.00000000       251.476196      -1.57079363    
   3.53553391       3.53553391      -8.00000000       251.476196      -1.57079363    
   3.93283010       3.01776695      -8.00000000       251.476196      -1.57079363    
   3.93283010       3.01776695      -9.00000000       251.476196      -1.57079363    
   3.53553391       3.53553391      -8.00000000       392.394501      -1.57079446    
   3.53553391       3.53553391      -7.00000000       392.394501      -1.57079446    
   3.93283010       3.01776695      -7.00000000       392.394501      -1.57079446    
   3.93283010       3.01776695      -8.00000000       392.394501      -1.57079446    
   3.53553391       3.53553391      -7.00000000       570.301514      -1.57079506    
   3.53553391       3.53553391      -6.00000000       570.301514      -1.57079506    
   3.93283010       3.01776695      -6.00000000       570.301514      -1.57079506    
   3.93283010       3.01776695      -7.00000000       570.301514      -1.57079506    
   3.53553391       3.53553391      -6.00000000       765.668945      -1.57079530    
   3.53553391       3.53553391      -5.00000000       765.668945      -1.57079530    
   3.93283010       3.01776695      -5.00000000       765.668945      -1.57079530    
   3.93283010       3.01776695      -6.00000000       765.668945      -1.57079530    
   3.53553391       3.53553391      -5.00000000       966.733337      -1.57079554    
   3.53553391       3.53553391      -4.00000000       966.733337      -1.57079554    
   3.93283010       3.01776695      -4.00000000       966.733337      -1.57079554    
   3.93283010       3.01776695      -5.00000000       966.733337      -1.57079554    
   3.53553391       3.53553391      -4.00000000       1163.28784      -1.57079566    
   3.53553391       3.53553391      -3.00000000       1163.28784      -1.57079566    
   3.93283010       3.01776695      -3.00000000       1163.28784      -1.57079566    
   3.93283010       3.01776695      -4.00000000       1163.28784      -1.57079566    
   3.53553391       3.53553391      -3.00000000       1344.88062      -1.57079577    
   3.53553391       3.53553391      -2.00000000       1344.88062      -1.57079577    
   3.93283010       3.01776695      -2.00000000       1344.88062      -1.57079577    
   3.93283010       3.01776695      -3.00000000       1344.88062      -1.57079577    
   3.53553391       3.53553391      -2.00000000       1499.17456      -1.57079577    
   3.53553391       3.53553391      -1.00000000       1499.17456      -1.57079577    
   3.93283010       3.01776695      -1.00000000       1499.17456      -1.57079577    
   3.93283010       3.01776695      -2.00000000       1499.17456      -1.57079577    
   3.53553391       3.53553391      -1.00000000       1602.93079      -1.57079589    
   3.53553391       3.53553391       0.00000000       1602.93079      -1.57079589    
   3.93283010       3.01776695       0.00000000       1602.93079      -1.57079589    
   3.93283010       3.01776695      -1.00000000       1602.93079      -1.57079589    
   3.93283010       3.01776695      -10.0000000       228.448669      -1.57079327    
   3.93283010       3.01776695      -9.00000000       228.448669      -1.57079327    
   4.33012676       2.50000000      -9.00000000       228.448669      -1.57079327    
   4.33012676       2.50000000      -10.0000000       228.448669      -1.57079327    
   3.93283010       3.01776695      -9.00000000       278.775787      -1.57079363    
   3.93283010       3.01776695      -8.00000000       278.775787      -1.57079363    
   4.33012676       2.50000000      -8.00000000       278.775787      -1.57079363    
   4.33012676       2.50000000      -9.00000000       278.775787      -1.57079363    
   3.93283010       3.01776695      -8.00000000       431.954468      -1.57079446    
   3.93283010       3.01776695      -7.00000000       431.954468      -1.57079446    
   4.33012676       2.50000000      -7.00000000       431.954468      -1.57079446    
   4.33012676       2.50000000      -8.00000000       431.954468      -1.57079446    
   3.93283010       3.01776695      -7.00000000       625.843689      -1.57079506    
   3.93283010       3.01776695      -6.00000000       625.843689      -1.57079506    
   4.33012676       2.50000000      -6.00000000       625.843689      -1.57079506    
   4.33012676       2.50000000      -7.00000000       625.843689      -1.57079506    
   3.93283010       3.01776695      -6.00000000       838.934814      -1.57079530    
   3.93283010       3.01776695      -5.00000000       838.934814      -1.57079530    
   4.33012676       2.50000000      -5.00000000       838.934814      -1.57079530    
   4.33012676       2.50000000      -6.00000000       838.934814      -1.57079530    
   3.93283010       3.01776695      -5.00000000       1058.30591      -1.57079554    
   3.93283010       3.01776695      -4.00000000       1058.30591      -1.57079554    
   4.33012676       2.50000000      -4.00000000       1058.30591      -1.57079554    
   4.33012676       2.50000000      -5.00000000       1058.30591      -1.57079554    
   3.93283010       3.01776695      -4.00000000       1272.67163      -1.57079566    
   3.93283010       3.01776695      -3.00000000       1272.67163      -1.57079566    
   4.33012676       2.50000000      -3.00000000       1272.67163      -1.57079566    
   4.33012676       2.50000000      -4.00000000       1272.67163      -1.57079566    
   3.93283010       3.01776695      -3.00000000       1470.60046      -1.57079577    
   3.93283010       3.01776695      -2.00000000       1470.60046      -1.57079577    
   4.33012676       2.50000000      -2.00000000       1470.60046      -1.57079577    
   4.33012676       2.50000000      -3.00000000       1470.60046      -1.57079577    
   3.93283010       3.01776695      -2.00000000       1638.47449      -1.57079577    
   3.93283010       3.01776695      -1.00000000       1638.47449      -1.57079577    
   4.33012676       2.50000000      -1.00000000       1638.47449      -1.57079577    
   4.33012676       2.50000000      -2.00000000       1638.47449      -1.57079577    
   3.93283010       3.01776695      -1.00000000       1750.88159      -1.57079577    
   3.93283010       3.01776695       0.00000000       1750.88159      -1.57079577    
   4.33012676       2.50000000       0.00000000       1750.88159      -1.57079577    
   4.33012676       2.50000000      -1.00000000       1750.88159      -1.57079577    
   2.50000000       4.33012676      -10.0000000       150.342209      -1.57079315    
   2.50000000       4.33012676      -9.00000000       150.342209      -1.57079315    
   3.01776695       3.93283010      -9.00000000       150.342209      -1.57079315    
   3.01776695       3.93283010      -10.0000000       150.342209      -1.57079315    
   2.50000000       4.33012676      -9.00000000       185.649582      -1.57079351    
   2.50000000       4.33012676      -8.00000000       185.649582      -1.57079351    
   3.01776695       3.93283010      -8.00000000       185.649582      -1.57079351    
   3.01776695       3.93283010      -9.00000000       185.649582      -1.57079351    
   2.50000000       4.33012676      -8.00000000       290.494965      -1.57079446    
   2.50000000       4.33012676      -7.00000000       290.494965      -1.57079446    
   3.01776695       3.93283010      -7.00000000       290.494965      -1.57079446    
   3.01776695       3.93283010      -8.00000000       290.494965      -1.57079446    
   2.50000000       4.33012676      -7.00000000       422.725189      -1.57079506    
   2.50000000       4.33012676      -6.00000000       422.725189      -1.57079506    
   3.01776695       3.93283010      -6.00000000       422.725189      -1.57079506    
   3.01776695       3.93283010      -7.00000000       422.725189      -1.57079506    
   2.50000000       4.33012676      -6.00000000       567.887146      -1.57079530    
   2.50000000       4.33012676      -5.00000000       567.887146      -1.57079530    
   3.01776695       3.93283010      -5.00000000       567.887146      -1.57079530    
   3.01776695       3.93283010      -6.00000000       567.887146      -1.57079530    
   2.50000000       4.33012676      -5.00000000       717.264954      -1.57079554    
   2.50000000       4.33012676      -4.00000000       717.264954      -1.57079554    
   3.01776695       3.93283010      -4.00000000       717.264954      -1.57079554    
   3.01776695       3.93283010      -5.00000000       717.264954      -1.57079554    
   2.50000000       4.33012676      -4.00000000       863.312744      -1.57079566    
   2.50000000       4.33012676      -3.00000000       863.312744      -1.57079566    
   3.01776695       3.93283010      -3.00000000       863.312744      -1.57079566    
   3.01776695       3.93283010      -4.00000000       863.312744      -1.57079566    
   2.50000000       4.33012676      -3.00000000       998.278259      -1.57079577    
   2.50000000       4.33012676      -2.00000000       998.278259      -1.57079577    
   3.01776695       3.93283010      -2.00000000       998.278259      -1.57079577    
   3.01776695       3.93283010      -3.00000000       998.278259      -1.57079577    
   2.50000000       4.33012676      -2.00000000       1113.03271      -1.57079577    
   2.50000000       4.33012676      -1.00000000       1113.03271      -1.57079577    
   3.01776695       3.93283010      -1.00000000       1113.03271      -1.57079577    
   3.01776695       3.93283010      -2.00000000       1113.03271      -1.57079577    
   2.50000000       4.33012676      -1.00000000       1190.32922      -1.57079577    
   2.50000000       4.33012676       0.00000000       1190.32922      -1.57079577    
   3.01776695       3.93283010       0.00000000       1190.32922      -1.57079577    
   3.01776695       3.93283010      -1.00000000       1190.32922      -1.57079577    
   3.01776695       3.93283010      -10.0000000       181.753296      -1.57079327    
   3.01776695       3.93283010      -9.00000000       181.753296      -1.57079327    
   3.53553391       3.53553391      -9.00000000       181.753296      -1.57079327    
   3.53553391       3.53553391      -10.0000000       181.753296      -1.57079327    
   3.01776695       3.93283010      -9.00000000       221.227264      -1.57079363    
   3.01776695       3.93283010      -8.00000000       221.227264      -1.57079363    
   3.53553391       3.53553391      -8.00000000       221.227264      -1.57079363    
   3.53553391       3.53553391      -9.00000000       221.227264      -1.57079363    
   3.01776695       3.93283010      -8.00000000       342.050323      -1.57079446    
   3.01776695       3.93283010      -7.00000000       342.050323      -1.57079446    
   3.53553391       3.53553391      -7.00000000       342.050323      -1.57079446    
   3.53553391       3.53553391      -8.00000000       342.050323      -1.57079446    
   3.01776695       3.93283010      -7.00000000       495.109741      -1.57079506    
   3.01776695       3.93283010      -6.00000000       495.109741      -1.57079506    
   3.53553391       3.53553391      -6.00000000       495.109741      -1.57079506    
   3.53553391       3.53553391      -7.00000000       495.109741      -1.57079506    
   3.01776695       3.93283010      -6.00000000       663.369202      -1.57079530    
   3.01776695       3.93283010      -5.00000000       663.369202      -1.57079530    
   3.53553391       3.53553391      -5.00000000       663.369202      -1.57079530    
   3.53553391       3.53553391      -6.00000000       663.369202      -1.57079530    
   3.01776695       3.93283010      -5.00000000       836.604492      -1.57079554    
   3.01776695       3.93283010      -4.00000000       836.604492      -1.57079554    
   3.53553391       3.53553391      -4.00000000       836.604492      -1.57079554    
   3.53553391       3.53553391      -5.00000000       836.604492      -1.57079554    
   3.01776695       3.93283010      -4.00000000       1005.86359      -1.57079566    
   3.01776695       3.93283010      -3.00000000       1005.86359      -1.57079566    
   3.53553391       3.53553391      -3.00000000       1005.86359      -1.57079566    
   3.53553391       3.53553391      -4.00000000       1005.86359      -1.57079566    
   3.01776695       3.93283010      -3.00000000       1162.11572      -1.57079577    
   3.01776695       3.93283010      -2.00000000       1162.11572      -1.57079577    
   3.53553391       3.53553391      -2.00000000       1162.11572      -1.57079577    
   3.53553391       3.53553391      -3.00000000       1162.11572      -1.57079577    
   3.01776695       3.93283010      -2.00000000       1294.56909      -1.57079577    
   3.01776695       3.93283010      -1.00000000       1294.56909      -1.57079577    
   3.53553391       3.53553391      -1.00000000       1294.56909      -1.57079577    
   3.53553391       3.53553391      -2.00000000       1294.56909      -1.57079577    
   3.01776695       3.93283010      -1.00000000       1383.14307      -1.57079577    
   3.01776695       3.93283010       0.00000000       1383.14307      -1.57079577    
   3.53553391       3.53553391       0.00000000       1383.14307      -1.57079577    
   3.53553391       3.53553391      -1.00000000       1383.14307      -1.57079577    
   1.29409504       4.82962894      -10.0000000       86.0927124      -1.57079315    
   1.29409504       4.82962894      -9.00000000       86.0927124      -1.57079315    
   1.89704800       4.57987785      -9.00000000       86.0927124      -1.57079315    
   1.89704800       4.57987785      -10.0000000       86.0927124      -1.57079315    
   1.29409504       4.82962894      -9.00000000       107.171455      -1.57079351    
   1.29409504       4.82962894      -8.00000000       107.171455      -1.57079351    
   1.89704800       4.57987785      -8.00000000       107.171455      -1.57079351    
   1.89704800       4.57987785      -9.00000000       107.171455      -1.57079351    
   1.29409504       4.82962894      -8.00000000       168.798416      -1.57079446    
   1.29409504       4.82962894      -7.00000000       168.798416      -1.57079446    
   1.89704800       4.57987785      -7.00000000       168.798416      -1.57079446    
   1.89704800       4.57987785      -8.00000000       168.798416      -1.57079446    
   1.29409504       4.82962894      -7.00000000       246.341187      -1.57079506    
   1.29409504       4.82962894      -6.00000000       246.341187      -1.57079506    
   1.89704800       4.57987785      -6.00000000       246.341187      -1.57079506    
   1.89704800       4.57987785      -7.00000000       246.341187      -1.57079506    
   1.29409504       4.82962894      -6.00000000       331.404663      -1.57079530    
   1.29409504       4.82962894      -5.00000000       331.404663      -1.57079530    
   1.89704800       4.57987785      -5.00000000       331.404663      -1.57079530    
   1.89704800       4.57987785      -6.00000000       331.404663      -1.57079530    
   1.29409504       4.82962894      -5.00000000       418.913971      -1.57079554    
   1.29409504       4.82962894      -4.00000000       418.913971      -1.57079554    
   1.89704800       4.57987785      -4.00000000       418.913971      -1.57079554    
   1.89704800       4.57987785      -5.00000000       418.913971      -1.57079554    
   1.29409504       4.82962894      -4.00000000       504.504303      -1.57079566    
   1.29409504       4.82962894      -3.00000000       504.504303      -1.57079566    
   1.89704800       4.57987785      -3.00000000       504.504303      -1.57079566    