 VARIABLES="X" "Y" "Z" "abs(p) (Pa)" "angle(p) (rad)"
ZONE N=   1080,E =     600, F=FEPOINT, ET=QUADRILATERAL
   4.82962894       1.29409504      -10.0000000       1023.17822       2.87531638    
   4.82962894       1.29409504      -9.00000000       1023.17822       2.87531638    
   4.91481400      0.647047520      -9.00000000       1023.17822       2.87531638    
   4.91481400      0.647047520      -10.0000000       1023.17822       2.87531638    
   4.82962894       1.29409504      -9.00000000       1336.24731       2.86422729    
   4.82962894       1.29409504      -8.00000000       1336.24731       2.86422729    
   4.91481400      0.647047520      -8.00000000       1336.24731       2.86422729    
   4.91481400      0.647047520      -9.00000000       1336.24731       2.86422729    
   4.82962894       1.29409504      -8.00000000       1778.99402       2.67202616    
   4.82962894       1.29409504      -7.00000000       1778.99402       2.67202616    
   4.91481400      0.647047520      -7.00000000       1778.99402       2.67202616    
   4.91481400      0.647047520      -8.00000000       1778.99402       2.67202616    
   4.82962894       1.29409504      -7.00000000       2379.09521       2.51277900    
   4.82962894       1.29409504      -6.00000000       2379.09521       2.51277900    
   4.91481400      0.647047520      -6.00000000       2379.09521       2.51277900    
   4.91481400      0.647047520      -7.00000000       2379.09521       2.51277900    
   4.82962894       1.29409504      -6.00000000       3119.32520       2.40642762    
   4.82962894       1.29409504      -5.00000000       3119.32520       2.40642762    
   4.91481400      0.647047520      -5.00000000       3119.32520       2.40642762    
   4.91481400      0.647047520      -6.00000000       3119.32520       2.40642762    
   4.82962894       1.29409504      -5.00000000       3979.67212       2.34035468    
   4.82962894       1.29409504      -4.00000000       3979.67212       2.34035468    
   4.91481400      0.647047520      -4.00000000       3979.67212       2.34035468    
   4.91481400      0.647047520      -5.00000000       3979.67212       2.34035468    
   4.82962894       1.29409504      -4.00000000       4951.86084       2.30144215    
   4.82962894       1.29409504      -3.00000000       4951.86084       2.30144215    
   4.91481400      0.647047520      -3.00000000       4951.86084       2.30144215    
   4.91481400      0.647047520      -4.00000000       4951.86084       2.30144215    
   4.82962894       1.29409504      -3.00000000       6038.41357       2.28087640    
   4.82962894       1.29409504      -2.00000000       6038.41357       2.28087640    
   4.91481400      0.647047520      -2.00000000       6038.41357       2.28087640    
   4.91481400      0.647047520      -3.00000000       6038.41357       2.28087640    
   4.82962894       1.29409504      -2.00000000       7255.93066       2.27233315    
   4.82962894       1.29409504      -1.00000000       7255.93066       2.27233315    
   4.91481400      0.647047520      -1.00000000       7255.93066       2.27233315    
   4.91481400      0.647047520      -2.00000000       7255.93066       2.27233315    
   4.82962894       1.29409504      -1.00000000       8635.89062       2.27096534    
   4.82962894       1.29409504       0.00000000       8635.89062       2.27096534    
   4.91481400      0.647047520       0.00000000       8635.89062       2.27096534    
   4.91481400      0.647047520      -1.00000000       8635.89062       2.27096534    
   4.91481400      0.647047520      -10.0000000       352.638000       3.00291538    
   4.91481400      0.647047520      -9.00000000       352.638000       3.00291538    
   5.00000000       0.00000000      -9.00000000       352.638000       3.00291538    
   5.00000000       0.00000000      -10.0000000       352.638000       3.00291538    
   4.91481400      0.647047520      -9.00000000       468.138123       2.91740656    
   4.91481400      0.647047520      -8.00000000       468.138123       2.91740656    
   5.00000000       0.00000000      -8.00000000       468.138123       2.91740656    
   5.00000000       0.00000000      -9.00000000       468.138123       2.91740656    
   4.91481400      0.647047520      -8.00000000       632.442566       2.67057896    
   4.91481400      0.647047520      -7.00000000       632.442566       2.67057896    
   5.00000000       0.00000000      -7.00000000       632.442566       2.67057896    
   5.00000000       0.00000000      -8.00000000       632.442566       2.67057896    
   4.91481400      0.647047520      -7.00000000       862.111328       2.48643923    
   4.91481400      0.647047520      -6.00000000       862.111328       2.48643923    
   5.00000000       0.00000000      -6.00000000       862.111328       2.48643923    
   5.00000000       0.00000000      -7.00000000       862.111328       2.48643923    
   4.91481400      0.647047520      -6.00000000       1146.27991       2.37051630    
   4.91481400      0.647047520      -5.00000000       1146.27991       2.37051630    
   5.00000000       0.00000000      -5.00000000       1146.27991       2.37051630    
   5.00000000       0.00000000      -6.00000000       1146.27991       2.37051630    
   4.91481400      0.647047520      -5.00000000       1474.66504       2.30129170    
   4.91481400      0.647047520      -4.00000000       1474.66504       2.30129170    
   5.00000000       0.00000000      -4.00000000       1474.66504       2.30129170    
   5.00000000       0.00000000      -5.00000000       1474.66504       2.30129170    
   4.91481400      0.647047520      -4.00000000       1843.53320       2.26139307    
   4.91481400      0.647047520      -3.00000000       1843.53320       2.26139307    
   5.00000000       0.00000000      -3.00000000       1843.53320       2.26139307    
   5.00000000       0.00000000      -4.00000000       1843.53320       2.26139307    
   4.91481400      0.647047520      -3.00000000       2252.29956       2.24087811    
   4.91481400      0.647047520      -2.00000000       2252.29956       2.24087811    
   5.00000000       0.00000000      -2.00000000       2252.29956       2.24087811    
   5.00000000       0.00000000      -3.00000000       2252.29956       2.24087811    
   4.91481400      0.647047520      -2.00000000       2707.16235       2.23278785    
   4.91481400      0.647047520      -1.00000000       2707.16235       2.23278785    
   5.00000000       0.00000000      -1.00000000       2707.16235       2.23278785    
   5.00000000       0.00000000      -2.00000000       2707.16235       2.23278785    
   4.91481400      0.647047520      -1.00000000       3216.50513       2.23246408    
   4.91481400      0.647047520       0.00000000       3216.50513       2.23246408    
   5.00000000       0.00000000       0.00000000       3216.50513       2.23246408    
   5.00000000       0.00000000      -1.00000000       3216.50513       2.23246408    
   4.33012676       2.50000000      -10.0000000       2326.83374       2.89460278    
   4.33012676       2.50000000      -9.00000000       2326.83374       2.89460278    
   4.57987785       1.89704800      -9.00000000       2326.83374       2.89460278    
   4.57987785       1.89704800      -10.0000000       2326.83374       2.89460278    
   4.33012676       2.50000000      -9.00000000       3049.00684       2.87239242    
   4.33012676       2.50000000      -8.00000000       3049.00684       2.87239242    
   4.57987785       1.89704800      -8.00000000       3049.00684       2.87239242    
   4.57987785       1.89704800      -9.00000000       3049.00684       2.87239242    
   4.33012676       2.50000000      -8.00000000       4069.20093       2.67180037    
   4.33012676       2.50000000      -7.00000000       4069.20093       2.67180037    
   4.57987785       1.89704800      -7.00000000       4069.20093       2.67180037    
   4.57987785       1.89704800      -8.00000000       4069.20093       2.67180037    
   4.33012676       2.50000000      -7.00000000       5457.91650       2.50861859    
   4.33012676       2.50000000      -6.00000000       5457.91650       2.50861859    
   4.57987785       1.89704800      -6.00000000       5457.91650       2.50861859    
   4.57987785       1.89704800      -7.00000000       5457.91650       2.50861859    
   4.33012676       2.50000000      -6.00000000       7171.73682       2.40068913    
   4.33012676       2.50000000      -5.00000000       7171.73682       2.40068913    
   4.57987785       1.89704800      -5.00000000       7171.73682       2.40068913    
   4.57987785       1.89704800      -6.00000000       7171.73682       2.40068913    
   4.33012676       2.50000000      -5.00000000       9161.85547       2.33406901    
   4.33012676       2.50000000      -4.00000000       9161.85547       2.33406901    
   4.57987785       1.89704800      -4.00000000       9161.85547       2.33406901    
   4.57987785       1.89704800      -5.00000000       9161.85547       2.33406901    
   4.33012676       2.50000000      -4.00000000       11408.5596       2.29497361    
   4.33012676       2.50000000      -3.00000000       11408.5596       2.29497361    
   4.57987785       1.89704800      -3.00000000       11408.5596       2.29497361    
   4.57987785       1.89704800      -4.00000000       11408.5596       2.29497361    
   4.33012676       2.50000000      -3.00000000       13916.1152       2.27440381    
   4.33012676       2.50000000      -2.00000000       13916.1152       2.27440381    
   4.57987785       1.89704800      -2.00000000       13916.1152       2.27440381    
   4.57987785       1.89704800      -3.00000000       13916.1152       2.27440381    
   4.33012676       2.50000000      -2.00000000       16722.7598       2.26593161    
   4.33012676       2.50000000      -1.00000000       16722.7598       2.26593161    
   4.57987785       1.89704800      -1.00000000       16722.7598       2.26593161    
   4.57987785       1.89704800      -2.00000000       16722.7598       2.26593161    
   4.33012676       2.50000000      -1.00000000       19897.7383       2.26474190    
   4.33012676       2.50000000       0.00000000       19897.7383       2.26474190    
   4.57987785       1.89704800       0.00000000       19897.7383       2.26474190    
   4.57987785       1.89704800      -1.00000000       19897.7383       2.26474190    
   4.57987785       1.89704800      -10.0000000       1701.09900       2.92629814    
   4.57987785       1.89704800      -9.00000000       1701.09900       2.92629814    
   4.82962894       1.29409504      -9.00000000       1701.09900       2.92629814    
   4.82962894       1.29409504      -10.0000000       1701.09900       2.92629814    
   4.57987785       1.89704800      -9.00000000       2239.85767       2.88569474    
   4.57987785       1.89704800      -8.00000000       2239.85767       2.88569474    
   4.82962894       1.29409504      -8.00000000       2239.85767       2.88569474    
   4.82962894       1.29409504      -9.00000000       2239.85767       2.88569474    
   4.57987785       1.89704800      -8.00000000       3000.77881       2.67143512    
   4.57987785       1.89704800      -7.00000000       3000.77881       2.67143512    
   4.82962894       1.29409504      -7.00000000       3000.77881       2.67143512    
   4.82962894       1.29409504      -8.00000000       3000.77881       2.67143512    
   4.57987785       1.89704800      -7.00000000       4044.21191       2.50193071    
   4.57987785       1.89704800      -6.00000000       4044.21191       2.50193071    
   4.82962894       1.29409504      -6.00000000       4044.21191       2.50193071    
   4.82962894       1.29409504      -7.00000000       4044.21191       2.50193071    
   4.57987785       1.89704800      -6.00000000       5332.94678       2.39152026    
   4.57987785       1.89704800      -5.00000000       5332.94678       2.39152026    
   4.82962894       1.29409504      -5.00000000       5332.94678       2.39152026    
   4.82962894       1.29409504      -6.00000000       5332.94678       2.39152026    
   4.57987785       1.89704800      -5.00000000       6827.22852       2.32405686    
   4.57987785       1.89704800      -4.00000000       6827.22852       2.32405686    
   4.82962894       1.29409504      -4.00000000       6827.22852       2.32405686    
   4.82962894       1.29409504      -5.00000000       6827.22852       2.32405686    
   4.57987785       1.89704800      -4.00000000       8511.62500       2.28468895    
   4.57987785       1.89704800      -3.00000000       8511.62500       2.28468895    
   4.82962894       1.29409504      -3.00000000       8511.62500       2.28468895    
   4.82962894       1.29409504      -4.00000000       8511.62500       2.28468895    
   4.57987785       1.89704800      -3.00000000       10387.5059       2.26412487    
   4.57987785       1.89704800      -2.00000000       10387.5059       2.26412487    
   4.82962894       1.29409504      -2.00000000       10387.5059       2.26412487    
   4.82962894       1.29409504      -3.00000000       10387.5059       2.26412487    
   4.57987785       1.89704800      -2.00000000       12483.3740       2.25576878    
   4.57987785       1.89704800      -1.00000000       12483.3740       2.25576878    
   4.82962894       1.29409504      -1.00000000       12483.3740       2.25576878    
   4.82962894       1.29409504      -2.00000000       12483.3740       2.25576878    
   4.57987785       1.89704800      -1.00000000       14847.0107       2.25485253    
   4.57987785       1.89704800       0.00000000       14847.0107       2.25485253    
   4.82962894       1.29409504       0.00000000       14847.0107       2.25485253    
   4.82962894       1.29409504      -1.00000000       14847.0107       2.25485253    
   3.53553391       3.53553391      -10.0000000       3472.16748       2.90028644    
   3.53553391       3.53553391      -9.00000000       3472.16748       2.90028644    
   3.93283010       3.01776695      -9.00000000       3472.16748       2.90028644    
   3.93283010       3.01776695      -10.0000000       3472.16748       2.90028644    
   3.53553391       3.53553391      -9.00000000       4554.03857       2.87478733    
   3.53553391       3.53553391      -8.00000000       4554.03857       2.87478733    
   3.93283010       3.01776695      -8.00000000       4554.03857       2.87478733    
   3.93283010       3.01776695      -9.00000000       4554.03857       2.87478733    
   3.53553391       3.53553391      -8.00000000       6082.09180       2.67173433    
   3.53553391       3.53553391      -7.00000000       6082.09180       2.67173433    
   3.93283010       3.01776695      -7.00000000       6082.09180       2.67173433    
   3.93283010       3.01776695      -8.00000000       6082.09180       2.67173433    
   3.53553391       3.53553391      -7.00000000       8164.80371       2.50740671    
   3.53553391       3.53553391      -6.00000000       8164.80371       2.50740671    
   3.93283010       3.01776695      -6.00000000       8164.80371       2.50740671    
   3.93283010       3.01776695      -7.00000000       8164.80371       2.50740671    
   3.53553391       3.53553391      -6.00000000       10735.4707       2.39902258    
   3.53553391       3.53553391      -5.00000000       10735.4707       2.39902258    
   3.93283010       3.01776695      -5.00000000       10735.4707       2.39902258    
   3.93283010       3.01776695      -6.00000000       10735.4707       2.39902258    
   3.53553391       3.53553391      -5.00000000       13719.7646       2.33224487    
   3.53553391       3.53553391      -4.00000000       13719.7646       2.33224487    
   3.93283010       3.01776695      -4.00000000       13719.7646       2.33224487    
   3.93283010       3.01776695      -5.00000000       13719.7646       2.33224487    
   3.53553391       3.53553391      -4.00000000       17087.9062       2.29309821    
   3.53553391       3.53553391      -3.00000000       17087.9062       2.29309821    
   3.93283010       3.01776695      -3.00000000       17087.9062       2.29309821    
   3.93283010       3.01776695      -4.00000000       17087.9062       2.29309821    
   3.53553391       3.53553391      -3.00000000       20845.6035       2.27252841    
   3.53553391       3.53553391      -2.00000000       20845.6035       2.27252841    
   3.93283010       3.01776695      -2.00000000       20845.6035       2.27252841    
   3.93283010       3.01776695      -3.00000000       20845.6035       2.27252841    
   3.53553391       3.53553391      -2.00000000       25050.1504       2.26407790    
   3.53553391       3.53553391      -1.00000000       25050.1504       2.26407790    
   3.93283010       3.01776695      -1.00000000       25050.1504       2.26407790    
   3.93283010       3.01776695      -2.00000000       25050.1504       2.26407790    
   3.53553391       3.53553391      -1.00000000       29803.8203       2.26293874    
   3.53553391       3.53553391       0.00000000       29803.8203       2.26293874    
   3.93283010       3.01776695       0.00000000       29803.8203       2.26293874    
   3.93283010       3.01776695      -1.00000000       29803.8203       2.26293874    
   3.93283010       3.01776695      -10.0000000       2934.78711       2.91710138    
   3.93283010       3.01776695      -9.00000000       2934.78711       2.91710138    
   4.33012676       2.50000000      -9.00000000       2934.78711       2.91710138    
   4.33012676       2.50000000      -10.0000000       2934.78711       2.91710138    
   3.93283010       3.01776695      -9.00000000       3859.19775       2.88184714    
   3.93283010       3.01776695      -8.00000000       3859.19775       2.88184714    
   4.33012676       2.50000000      -8.00000000       3859.19775       2.88184714    
   4.33012676       2.50000000      -9.00000000       3859.19775       2.88184714    
   3.93283010       3.01776695      -8.00000000       5164.61719       2.67154121    
   3.93283010       3.01776695      -7.00000000       5164.61719       2.67154121    
   4.33012676       2.50000000      -7.00000000       5164.61719       2.67154121    
   4.33012676       2.50000000      -8.00000000       5164.61719       2.67154121    
   3.93283010       3.01776695      -7.00000000       6950.83154       2.50385356    
   3.93283010       3.01776695      -6.00000000       6950.83154       2.50385356    
   4.33012676       2.50000000      -6.00000000       6950.83154       2.50385356    
   4.33012676       2.50000000      -7.00000000       6950.83154       2.50385356    
   3.93283010       3.01776695      -6.00000000       9156.45117       2.39414930    
   3.93283010       3.01776695      -5.00000000       9156.45117       2.39414930    
   4.33012676       2.50000000      -5.00000000       9156.45117       2.39414930    
   4.33012676       2.50000000      -6.00000000       9156.45117       2.39414930    
   3.93283010       3.01776695      -5.00000000       11714.9736       2.32692337    
   3.93283010       3.01776695      -4.00000000       11714.9736       2.32692337    
   4.33012676       2.50000000      -4.00000000       11714.9736       2.32692337    
   4.33012676       2.50000000      -5.00000000       11714.9736       2.32692337    
   3.93283010       3.01776695      -4.00000000       14600.2373       2.28762984    
   3.93283010       3.01776695      -3.00000000       14600.2373       2.28762984    
   4.33012676       2.50000000      -3.00000000       14600.2373       2.28762984    
   4.33012676       2.50000000      -4.00000000       14600.2373       2.28762984    
   3.93283010       3.01776695      -3.00000000       17815.5078       2.26706338    
   3.93283010       3.01776695      -2.00000000       17815.5078       2.26706338    
   4.33012676       2.50000000      -2.00000000       17815.5078       2.26706338    
   4.33012676       2.50000000      -3.00000000       17815.5078       2.26706338    
   3.93283010       3.01776695      -2.00000000       21409.7051       2.25867486    
   3.93283010       3.01776695      -1.00000000       21409.7051       2.25867486    
   4.33012676       2.50000000      -1.00000000       21409.7051       2.25867486    
   4.33012676       2.50000000      -2.00000000       21409.7051       2.25867486    
   3.93283010       3.01776695      -1.00000000       25466.6426       2.25768256    
   3.93283010       3.01776695       0.00000000       25466.6426       2.25768256    
   4.33012676       2.50000000       0.00000000       25466.6426       2.25768256    
   4.33012676       2.50000000      -1.00000000       25466.6426       2.25768256    
   2.50000000       4.33012676      -10.0000000       4380.93848       2.90330458    
   2.50000000       4.33012676      -9.00000000       4380.93848       2.90330458    
   3.01776695       3.93283010      -9.00000000       4380.93848       2.90330458    
   3.01776695       3.93283010      -10.0000000       4380.93848       2.90330458    
   2.50000000       4.33012676      -9.00000000       5748.73193       2.87605715    
   2.50000000       4.33012676      -8.00000000       5748.73193       2.87605715    
   3.01776695       3.93283010      -8.00000000       5748.73193       2.87605715    
   3.01776695       3.93283010      -9.00000000       5748.73193       2.87605715    
   2.50000000       4.33012676      -8.00000000       7680.50293       2.67169952    
   2.50000000       4.33012676      -7.00000000       7680.50293       2.67169952    
   3.01776695       3.93283010      -7.00000000       7680.50293       2.67169952    
   3.01776695       3.93283010      -8.00000000       7680.50293       2.67169952    
   2.50000000       4.33012676      -7.00000000       10315.2959       2.50676513    
   2.50000000       4.33012676      -6.00000000       10315.2959       2.50676513    
   3.01776695       3.93283010      -6.00000000       10315.2959       2.50676513    
   3.01776695       3.93283010      -7.00000000       10315.2959       2.50676513    
   2.50000000       4.33012676      -6.00000000       13567.6123       2.39814067    
   2.50000000       4.33012676      -5.00000000       13567.6123       2.39814067    
   3.01776695       3.93283010      -5.00000000       13567.6123       2.39814067    
   3.01776695       3.93283010      -6.00000000       13567.6123       2.39814067    
   2.50000000       4.33012676      -5.00000000       17342.7441       2.33128166    
   2.50000000       4.33012676      -4.00000000       17342.7441       2.33128166    
   3.01776695       3.93283010      -4.00000000       17342.7441       2.33128166    
   3.01776695       3.93283010      -5.00000000       17342.7441       2.33128166    
   2.50000000       4.33012676      -4.00000000       21602.7930       2.29210830    
   2.50000000       4.33012676      -3.00000000       21602.7930       2.29210830    
   3.01776695       3.93283010      -3.00000000       21602.7930       2.29210830    
   3.01776695       3.93283010      -4.00000000       21602.7930       2.29210830    
   2.50000000       4.33012676      -3.00000000       26354.5586       2.27153897    
   2.50000000       4.33012676      -2.00000000       26354.5586       2.27153897    
   3.01776695       3.93283010      -2.00000000       26354.5586       2.27153897    
   3.01776695       3.93283010      -3.00000000       26354.5586       2.27153897    
   2.50000000       4.33012676      -2.00000000       31670.4883       2.26309919    
   2.50000000       4.33012676      -1.00000000       31670.4883       2.26309919    
   3.01776695       3.93283010      -1.00000000       31670.4883       2.26309919    
   3.01776695       3.93283010      -2.00000000       31670.4883       2.26309919    
   2.50000000       4.33012676      -1.00000000       37678.8750       2.26198626    
   2.50000000       4.33012676       0.00000000       37678.8750       2.26198626    
   3.01776695       3.93283010       0.00000000       37678.8750       2.26198626    
   3.01776695       3.93283010      -1.00000000       37678.8750       2.26198626    
   3.01776695       3.93283010      -10.0000000       3968.58032       2.91316009    
   3.01776695       3.93283010      -9.00000000       3968.58032       2.91316009    
   3.53553391       3.53553391      -9.00000000       3968.58032       2.91316009    
   3.53553391       3.53553391      -10.0000000       3968.58032       2.91316009    
   3.01776695       3.93283010      -9.00000000       5215.55762       2.88019514    
   3.01776695       3.93283010      -8.00000000       5215.55762       2.88019514    
   3.53553391       3.53553391      -8.00000000       5215.55762       2.88019514    
   3.53553391       3.53553391      -9.00000000       5215.55762       2.88019514    
   3.01776695       3.93283010      -8.00000000       6976.49951       2.67158532    
   3.01776695       3.93283010      -7.00000000       6976.49951       2.67158532    
   3.53553391       3.53553391      -7.00000000       6976.49951       2.67158532    
   3.53553391       3.53553391      -8.00000000       6976.49951       2.67158532    
   3.01776695       3.93283010      -7.00000000       9383.77539       2.50468159    
   3.01776695       3.93283010      -6.00000000       9383.77539       2.50468159    
   3.53553391       3.53553391      -6.00000000       9383.77539       2.50468159    
   3.53553391       3.53553391      -7.00000000       9383.77539       2.50468159    
   3.01776695       3.93283010      -6.00000000       12355.9834       2.39528298    
   3.01776695       3.93283010      -5.00000000       12355.9834       2.39528298    
   3.53553391       3.53553391      -5.00000000       12355.9834       2.39528298    
   3.53553391       3.53553391      -6.00000000       12355.9834       2.39528298    
   3.01776695       3.93283010      -5.00000000       15804.3936       2.32816076    
   3.01776695       3.93283010      -4.00000000       15804.3936       2.32816076    
   3.53553391       3.53553391      -4.00000000       15804.3936       2.32816076    
   3.53553391       3.53553391      -5.00000000       15804.3936       2.32816076    
   3.01776695       3.93283010      -4.00000000       19693.9199       2.28890157    
   3.01776695       3.93283010      -3.00000000       19693.9199       2.28890157    
   3.53553391       3.53553391      -3.00000000       19693.9199       2.28890157    
   3.53553391       3.53553391      -4.00000000       19693.9199       2.28890157    
   3.01776695       3.93283010      -3.00000000       24029.4531       2.26833296    
   3.01776695       3.93283010      -2.00000000       24029.4531       2.26833296    
   3.53553391       3.53553391      -2.00000000       24029.4531       2.26833296    
   3.53553391       3.53553391      -3.00000000       24029.4531       2.26833296    
   3.01776695       3.93283010      -2.00000000       28877.0352       2.25993061    
   3.01776695       3.93283010      -1.00000000       28877.0352       2.25993061    
   3.53553391       3.53553391      -1.00000000       28877.0352       2.25993061    
   3.53553391       3.53553391      -2.00000000       28877.0352       2.25993061    
   3.01776695       3.93283010      -1.00000000       34350.8164       2.25890374    
   3.01776695       3.93283010       0.00000000       34350.8164       2.25890374    
   3.53553391       3.53553391       0.00000000       34350.8164       2.25890374    
   3.53553391       3.53553391      -1.00000000       34350.8164       2.25890374    
   1.29409504       4.82962894      -10.0000000       4991.18115       2.90540528    
   1.29409504       4.82962894      -9.00000000       4991.18115       2.90540528    
   1.89704800       4.57987785      -9.00000000       4991.18115       2.90540528    
   1.89704800       4.57987785      -10.0000000       4991.18115       2.90540528    
   1.29409504       4.82962894      -9.00000000       6551.66846       2.87694049    
   1.29409504       4.82962894      -8.00000000       6551.66846       2.87694049    
   1.89704800       4.57987785      -8.00000000       6551.66846       2.87694049    
   1.89704800       4.57987785      -9.00000000       6551.66846       2.87694049    
   1.29409504       4.82962894      -8.00000000       8755.49414       2.67167449    
   1.29409504       4.82962894      -7.00000000       8755.49414       2.67167449    
   1.89704800       4.57987785      -7.00000000       8755.49414       2.67167449    
   1.89704800       4.57987785      -8.00000000       8755.49414       2.67167449    
   1.29409504       4.82962894      -7.00000000       11762.8086       2.50631928    
   1.29409504       4.82962894      -6.00000000       11762.8086       2.50631928    
   1.89704800       4.57987785      -6.00000000       11762.8086       2.50631928    
   1.89704800       4.57987785      -7.00000000       11762.8086       2.50631928    
   1.29409504       4.82962894      -6.00000000       15475.1562       2.39752936    
   1.29409504       4.82962894      -5.00000000       15475.1562       2.39752936    
   1.89704800       4.57987785      -5.00000000       15475.1562       2.39752936    
   1.89704800       4.57987785      -6.00000000       15475.1562       2.39752936    
   1.29409504       4.82962894      -5.00000000       19783.8320       2.33061385    
   1.29409504       4.82962894      -4.00000000       19783.8320       2.33061385    
   1.89704800       4.57987785      -4.00000000       19783.8320       2.33061385    
   1.89704800       4.57987785      -5.00000000       19783.8320       2.33061385    
   1.29409504       4.82962894      -4.00000000       24645.4668       2.29142189    
   1.29409504       4.82962894      -3.00000000       24645.4668       2.29142189    
   1.89704800       4.57987785      -3.00000000       24645.4668       2.29142189    