 VARIABLES="X" "Y" "Z" "abs(p) (Pa)" "angle(p) (rad)"
ZONE N=   1080,E =     600, F=FEPOINT, ET=QUADRILATERAL
   4.82962894       1.29409504      -10.0000000       402.564270       2.30738521    
   4.82962894       1.29409504      -9.00000000       402.564270       2.30738521    
   4.91481400      0.647047520      -9.00000000       402.564270       2.30738521    
   4.91481400      0.647047520      -10.0000000       402.564270       2.30738521    
   4.82962894       1.29409504      -9.00000000       461.059540       2.09883261    
   4.82962894       1.29409504      -8.00000000       461.059540       2.09883261    
   4.91481400      0.647047520      -8.00000000       461.059540       2.09883261    
   4.91481400      0.647047520      -9.00000000       461.059540       2.09883261    
   4.82962894       1.29409504      -8.00000000       506.678101       2.01229191    
   4.82962894       1.29409504      -7.00000000       506.678101       2.01229191    
   4.91481400      0.647047520      -7.00000000       506.678101       2.01229191    
   4.91481400      0.647047520      -8.00000000       506.678101       2.01229191    
   4.82962894       1.29409504      -7.00000000       542.724792       1.96371865    
   4.82962894       1.29409504      -6.00000000       542.724792       1.96371865    
   4.91481400      0.647047520      -6.00000000       542.724792       1.96371865    
   4.91481400      0.647047520      -7.00000000       542.724792       1.96371865    
   4.82962894       1.29409504      -6.00000000       572.157410       1.93323159    
   4.82962894       1.29409504      -5.00000000       572.157410       1.93323159    
   4.91481400      0.647047520      -5.00000000       572.157410       1.93323159    
   4.91481400      0.647047520      -6.00000000       572.157410       1.93323159    
   4.82962894       1.29409504      -5.00000000       596.880249       1.91298437    
   4.82962894       1.29409504      -4.00000000       596.880249       1.91298437    
   4.91481400      0.647047520      -4.00000000       596.880249       1.91298437    
   4.91481400      0.647047520      -5.00000000       596.880249       1.91298437    
   4.82962894       1.29409504      -4.00000000       617.965271       1.89940667    
   4.82962894       1.29409504      -3.00000000       617.965271       1.89940667    
   4.91481400      0.647047520      -3.00000000       617.965271       1.89940667    
   4.91481400      0.647047520      -4.00000000       617.965271       1.89940667    
   4.82962894       1.29409504      -3.00000000       636.094910       1.89034534    
   4.82962894       1.29409504      -2.00000000       636.094910       1.89034534    
   4.91481400      0.647047520      -2.00000000       636.094910       1.89034534    
   4.91481400      0.647047520      -3.00000000       636.094910       1.89034534    
   4.82962894       1.29409504      -2.00000000       651.759888       1.88479567    
   4.82962894       1.29409504      -1.00000000       651.759888       1.88479567    
   4.91481400      0.647047520      -1.00000000       651.759888       1.88479567    
   4.91481400      0.647047520      -2.00000000       651.759888       1.88479567    
   4.82962894       1.29409504      -1.00000000       664.961731       1.88235676    
   4.82962894       1.29409504       0.00000000       664.961731       1.88235676    
   4.91481400      0.647047520       0.00000000       664.961731       1.88235676    
   4.91481400      0.647047520      -1.00000000       664.961731       1.88235676    
   4.91481400      0.647047520      -10.0000000       407.154144       2.29916596    
   4.91481400      0.647047520      -9.00000000       407.154144       2.29916596    
   5.00000000       0.00000000      -9.00000000       407.154144       2.29916596    
   5.00000000       0.00000000      -10.0000000       407.154144       2.29916596    
   4.91481400      0.647047520      -9.00000000       467.748413       2.09243393    
   4.91481400      0.647047520      -8.00000000       467.748413       2.09243393    
   5.00000000       0.00000000      -8.00000000       467.748413       2.09243393    
   5.00000000       0.00000000      -9.00000000       467.748413       2.09243393    
   4.91481400      0.647047520      -8.00000000       514.547913       2.00695825    
   4.91481400      0.647047520      -7.00000000       514.547913       2.00695825    
   5.00000000       0.00000000      -7.00000000       514.547913       2.00695825    
   5.00000000       0.00000000      -8.00000000       514.547913       2.00695825    
   4.91481400      0.647047520      -7.00000000       551.416260       1.95904016    
   4.91481400      0.647047520      -6.00000000       551.416260       1.95904016    
   5.00000000       0.00000000      -6.00000000       551.416260       1.95904016    
   5.00000000       0.00000000      -7.00000000       551.416260       1.95904016    
   4.91481400      0.647047520      -6.00000000       581.473511       1.92897940    
   4.91481400      0.647047520      -5.00000000       581.473511       1.92897940    
   5.00000000       0.00000000      -5.00000000       581.473511       1.92897940    
   5.00000000       0.00000000      -6.00000000       581.473511       1.92897940    
   4.91481400      0.647047520      -5.00000000       606.694275       1.90902078    
   4.91481400      0.647047520      -4.00000000       606.694275       1.90902078    
   5.00000000       0.00000000      -4.00000000       606.694275       1.90902078    
   5.00000000       0.00000000      -5.00000000       606.694275       1.90902078    
   4.91481400      0.647047520      -4.00000000       628.187500       1.89563787    
   4.91481400      0.647047520      -3.00000000       628.187500       1.89563787    
   5.00000000       0.00000000      -3.00000000       628.187500       1.89563787    
   5.00000000       0.00000000      -4.00000000       628.187500       1.89563787    
   4.91481400      0.647047520      -3.00000000       646.658752       1.88670635    
   4.91481400      0.647047520      -2.00000000       646.658752       1.88670635    
   5.00000000       0.00000000      -2.00000000       646.658752       1.88670635    
   5.00000000       0.00000000      -3.00000000       646.658752       1.88670635    
   4.91481400      0.647047520      -2.00000000       662.609070       1.88123655    
   4.91481400      0.647047520      -1.00000000       662.609070       1.88123655    
   5.00000000       0.00000000      -1.00000000       662.609070       1.88123655    
   5.00000000       0.00000000      -2.00000000       662.609070       1.88123655    
   4.91481400      0.647047520      -1.00000000       676.048828       1.87882912    
   4.91481400      0.647047520       0.00000000       676.048828       1.87882912    
   5.00000000       0.00000000       0.00000000       676.048828       1.87882912    
   5.00000000       0.00000000      -1.00000000       676.048828       1.87882912    
   4.33012676       2.50000000      -10.0000000       377.999237       2.35649252    
   4.33012676       2.50000000      -9.00000000       377.999237       2.35649252    
   4.57987785       1.89704800      -9.00000000       377.999237       2.35649252    
   4.57987785       1.89704800      -10.0000000       377.999237       2.35649252    
   4.33012676       2.50000000      -9.00000000       425.206970       2.13763070    
   4.33012676       2.50000000      -8.00000000       425.206970       2.13763070    
   4.57987785       1.89704800      -8.00000000       425.206970       2.13763070    
   4.57987785       1.89704800      -9.00000000       425.206970       2.13763070    
   4.33012676       2.50000000      -8.00000000       464.574158       2.04476380    
   4.33012676       2.50000000      -7.00000000       464.574158       2.04476380    
   4.57987785       1.89704800      -7.00000000       464.574158       2.04476380    
   4.57987785       1.89704800      -8.00000000       464.574158       2.04476380    
   4.33012676       2.50000000      -7.00000000       496.287933       1.99225914    
   4.33012676       2.50000000      -6.00000000       496.287933       1.99225914    
   4.57987785       1.89704800      -6.00000000       496.287933       1.99225914    
   4.57987785       1.89704800      -7.00000000       496.287933       1.99225914    
   4.33012676       2.50000000      -6.00000000       522.436462       1.95920348    
   4.33012676       2.50000000      -5.00000000       522.436462       1.95920348    
   4.57987785       1.89704800      -5.00000000       522.436462       1.95920348    
   4.57987785       1.89704800      -6.00000000       522.436462       1.95920348    
   4.33012676       2.50000000      -5.00000000       544.536011       1.93721819    
   4.33012676       2.50000000      -4.00000000       544.536011       1.93721819    
   4.57987785       1.89704800      -4.00000000       544.536011       1.93721819    
   4.57987785       1.89704800      -5.00000000       544.536011       1.93721819    
   4.33012676       2.50000000      -4.00000000       563.468872       1.92246425    
   4.33012676       2.50000000      -3.00000000       563.468872       1.92246425    
   4.57987785       1.89704800      -3.00000000       563.468872       1.92246425    
   4.57987785       1.89704800      -4.00000000       563.468872       1.92246425    
   4.33012676       2.50000000      -3.00000000       579.800598       1.91261590    
   4.33012676       2.50000000      -2.00000000       579.800598       1.91261590    
   4.57987785       1.89704800      -2.00000000       579.800598       1.91261590    
   4.57987785       1.89704800      -3.00000000       579.800598       1.91261590    
   4.33012676       2.50000000      -2.00000000       593.958801       1.90658343    
   4.33012676       2.50000000      -1.00000000       593.958801       1.90658343    
   4.57987785       1.89704800      -1.00000000       593.958801       1.90658343    
   4.57987785       1.89704800      -2.00000000       593.958801       1.90658343    
   4.33012676       2.50000000      -1.00000000       605.929016       1.90394008    
   4.33012676       2.50000000       0.00000000       605.929016       1.90394008    
   4.57987785       1.89704800       0.00000000       605.929016       1.90394008    
   4.57987785       1.89704800      -1.00000000       605.929016       1.90394008    
   4.57987785       1.89704800      -10.0000000       390.986450       2.32951880    
   4.57987785       1.89704800      -9.00000000       390.986450       2.32951880    
   4.82962894       1.29409504      -9.00000000       390.986450       2.32951880    
   4.82962894       1.29409504      -10.0000000       390.986450       2.32951880    
   4.57987785       1.89704800      -9.00000000       444.469238       2.11589456    
   4.57987785       1.89704800      -8.00000000       444.469238       2.11589456    
   4.82962894       1.29409504      -8.00000000       444.469238       2.11589456    
   4.82962894       1.29409504      -9.00000000       444.469238       2.11589456    
   4.57987785       1.89704800      -8.00000000       487.371765       2.02640224    
   4.57987785       1.89704800      -7.00000000       487.371765       2.02640224    
   4.82962894       1.29409504      -7.00000000       487.371765       2.02640224    
   4.82962894       1.29409504      -8.00000000       487.371765       2.02640224    
   4.57987785       1.89704800      -7.00000000       521.534363       1.97603977    
   4.57987785       1.89704800      -6.00000000       521.534363       1.97603977    
   4.82962894       1.29409504      -6.00000000       521.534363       1.97603977    
   4.82962894       1.29409504      -7.00000000       521.534363       1.97603977    
   4.57987785       1.89704800      -6.00000000       549.540222       1.94439459    
   4.57987785       1.89704800      -5.00000000       549.540222       1.94439459    
   4.82962894       1.29409504      -5.00000000       549.540222       1.94439459    
   4.82962894       1.29409504      -6.00000000       549.540222       1.94439459    
   4.57987785       1.89704800      -5.00000000       573.116394       1.92337096    
   4.57987785       1.89704800      -4.00000000       573.116394       1.92337096    
   4.82962894       1.29409504      -4.00000000       573.116394       1.92337096    
   4.82962894       1.29409504      -5.00000000       573.116394       1.92337096    
   4.57987785       1.89704800      -4.00000000       593.256897       1.90926993    
   4.57987785       1.89704800      -3.00000000       593.256897       1.90926993    
   4.82962894       1.29409504      -3.00000000       593.256897       1.90926993    
   4.82962894       1.29409504      -4.00000000       593.256897       1.90926993    
   4.57987785       1.89704800      -3.00000000       610.594604       1.89985871    
   4.57987785       1.89704800      -2.00000000       610.594604       1.89985871    
   4.82962894       1.29409504      -2.00000000       610.594604       1.89985871    
   4.82962894       1.29409504      -3.00000000       610.594604       1.89985871    
   4.57987785       1.89704800      -2.00000000       625.591003       1.89409518    
   4.57987785       1.89704800      -1.00000000       625.591003       1.89409518    
   4.82962894       1.29409504      -1.00000000       625.591003       1.89409518    
   4.82962894       1.29409504      -2.00000000       625.591003       1.89409518    
   4.57987785       1.89704800      -1.00000000       638.257996       1.89155900    
   4.57987785       1.89704800       0.00000000       638.257996       1.89155900    
   4.82962894       1.29409504       0.00000000       638.257996       1.89155900    
   4.82962894       1.29409504      -1.00000000       638.257996       1.89155900    
   3.53553391       3.53553391      -10.0000000       338.087616       2.46036553    
   3.53553391       3.53553391      -9.00000000       338.087616       2.46036553    
   3.93283010       3.01776695      -9.00000000       338.087616       2.46036553    
   3.93283010       3.01776695      -10.0000000       338.087616       2.46036553    
   3.53553391       3.53553391      -9.00000000       364.934265       2.22536588    
   3.53553391       3.53553391      -8.00000000       364.934265       2.22536588    
   3.93283010       3.01776695      -8.00000000       364.934265       2.22536588    
   3.93283010       3.01776695      -9.00000000       364.934265       2.22536588    
   3.53553391       3.53553391      -8.00000000       392.965942       2.12009311    
   3.53553391       3.53553391      -7.00000000       392.965942       2.12009311    
   3.93283010       3.01776695      -7.00000000       392.965942       2.12009311    
   3.93283010       3.01776695      -8.00000000       392.965942       2.12009311    
   3.53553391       3.53553391      -7.00000000       416.863373       2.05938387    
   3.53553391       3.53553391      -6.00000000       416.863373       2.05938387    
   3.93283010       3.01776695      -6.00000000       416.863373       2.05938387    
   3.93283010       3.01776695      -7.00000000       416.863373       2.05938387    
   3.53553391       3.53553391      -6.00000000       437.124512       2.02080607    
   3.53553391       3.53553391      -5.00000000       437.124512       2.02080607    
   3.93283010       3.01776695      -5.00000000       437.124512       2.02080607    
   3.93283010       3.01776695      -6.00000000       437.124512       2.02080607    
   3.53553391       3.53553391      -5.00000000       454.547241       1.99502015    
   3.53553391       3.53553391      -4.00000000       454.547241       1.99502015    
   3.93283010       3.01776695      -4.00000000       454.547241       1.99502015    
   3.93283010       3.01776695      -5.00000000       454.547241       1.99502015    
   3.53553391       3.53553391      -4.00000000       469.663605       1.97766829    
   3.53553391       3.53553391      -3.00000000       469.663605       1.97766829    
   3.93283010       3.01776695      -3.00000000       469.663605       1.97766829    
   3.93283010       3.01776695      -4.00000000       469.663605       1.97766829    
   3.53553391       3.53553391      -3.00000000       482.824829       1.96606982    
   3.53553391       3.53553391      -2.00000000       482.824829       1.96606982    
   3.93283010       3.01776695      -2.00000000       482.824829       1.96606982    
   3.93283010       3.01776695      -3.00000000       482.824829       1.96606982    
   3.53553391       3.53553391      -2.00000000       494.340393       1.95895982    
   3.53553391       3.53553391      -1.00000000       494.340393       1.95895982    
   3.93283010       3.01776695      -1.00000000       494.340393       1.95895982    
   3.93283010       3.01776695      -2.00000000       494.340393       1.95895982    
   3.53553391       3.53553391      -1.00000000       504.172882       1.95585811    
   3.53553391       3.53553391       0.00000000       504.172882       1.95585811    
   3.93283010       3.01776695       0.00000000       504.172882       1.95585811    
   3.93283010       3.01776695      -1.00000000       504.172882       1.95585811    
   3.93283010       3.01776695      -10.0000000       356.927704       2.40698338    
   3.93283010       3.01776695      -9.00000000       356.927704       2.40698338    
   4.33012676       2.50000000      -9.00000000       356.927704       2.40698338    
   4.33012676       2.50000000      -10.0000000       356.927704       2.40698338    
   3.93283010       3.01776695      -9.00000000       394.122437       2.17875051    
   3.93283010       3.01776695      -8.00000000       394.122437       2.17875051    
   4.33012676       2.50000000      -8.00000000       394.122437       2.17875051    
   4.33012676       2.50000000      -9.00000000       394.122437       2.17875051    
   3.93283010       3.01776695      -8.00000000       428.042633       2.07948542    
   3.93283010       3.01776695      -7.00000000       428.042633       2.07948542    
   4.33012676       2.50000000      -7.00000000       428.042633       2.07948542    
   4.33012676       2.50000000      -8.00000000       428.042633       2.07948542    
   3.93283010       3.01776695      -7.00000000       456.002777       2.02291846    
   3.93283010       3.01776695      -6.00000000       456.002777       2.02291846    
   4.33012676       2.50000000      -6.00000000       456.002777       2.02291846    
   4.33012676       2.50000000      -7.00000000       456.002777       2.02291846    
   3.93283010       3.01776695      -6.00000000       479.321838       1.98717773    
   3.93283010       3.01776695      -5.00000000       479.321838       1.98717773    
   4.33012676       2.50000000      -5.00000000       479.321838       1.98717773    
   4.33012676       2.50000000      -6.00000000       479.321838       1.98717773    
   3.93283010       3.01776695      -5.00000000       499.162262       1.96336699    
   3.93283010       3.01776695      -4.00000000       499.162262       1.96336699    
   4.33012676       2.50000000      -4.00000000       499.162262       1.96336699    
   4.33012676       2.50000000      -5.00000000       499.162262       1.96336699    
   3.93283010       3.01776695      -4.00000000       516.240417       1.94737554    
   3.93283010       3.01776695      -3.00000000       516.240417       1.94737554    
   4.33012676       2.50000000      -3.00000000       516.240417       1.94737554    
   4.33012676       2.50000000      -4.00000000       516.240417       1.94737554    
   3.93283010       3.01776695      -3.00000000       531.026733       1.93669486    
   3.93283010       3.01776695      -2.00000000       531.026733       1.93669486    
   4.33012676       2.50000000      -2.00000000       531.026733       1.93669486    
   4.33012676       2.50000000      -3.00000000       531.026733       1.93669486    
   3.93283010       3.01776695      -2.00000000       543.885498       1.93015230    
   3.93283010       3.01776695      -1.00000000       543.885498       1.93015230    
   4.33012676       2.50000000      -1.00000000       543.885498       1.93015230    
   4.33012676       2.50000000      -2.00000000       543.885498       1.93015230    
   3.93283010       3.01776695      -1.00000000       554.822815       1.92727673    
   3.93283010       3.01776695       0.00000000       554.822815       1.92727673    
   4.33012676       2.50000000       0.00000000       554.822815       1.92727673    
   4.33012676       2.50000000      -1.00000000       554.822815       1.92727673    
   2.50000000       4.33012676      -10.0000000       292.543060       2.64662790    
   2.50000000       4.33012676      -9.00000000       292.543060       2.64662790    
   3.01776695       3.93283010      -9.00000000       292.543060       2.64662790    
   3.01776695       3.93283010      -10.0000000       292.543060       2.64662790    
   2.50000000       4.33012676      -9.00000000       290.804688       2.40524292    
   2.50000000       4.33012676      -8.00000000       290.804688       2.40524292    
   3.01776695       3.93283010      -8.00000000       290.804688       2.40524292    
   3.01776695       3.93283010      -9.00000000       290.804688       2.40524292    
   2.50000000       4.33012676      -8.00000000       302.296204       2.28343463    
   2.50000000       4.33012676      -7.00000000       302.296204       2.28343463    
   3.01776695       3.93283010      -7.00000000       302.296204       2.28343463    
   3.01776695       3.93283010      -8.00000000       302.296204       2.28343463    
   2.50000000       4.33012676      -7.00000000       314.780060       2.20939088    
   2.50000000       4.33012676      -6.00000000       314.780060       2.20939088    
   3.01776695       3.93283010      -6.00000000       314.780060       2.20939088    
   3.01776695       3.93283010      -7.00000000       314.780060       2.20939088    
   2.50000000       4.33012676      -6.00000000       326.514374       2.16100430    
   2.50000000       4.33012676      -5.00000000       326.514374       2.16100430    
   3.01776695       3.93283010      -5.00000000       326.514374       2.16100430    
   3.01776695       3.93283010      -6.00000000       326.514374       2.16100430    
   2.50000000       4.33012676      -5.00000000       337.236145       2.12812400    
   2.50000000       4.33012676      -4.00000000       337.236145       2.12812400    
   3.01776695       3.93283010      -4.00000000       337.236145       2.12812400    
   3.01776695       3.93283010      -5.00000000       337.236145       2.12812400    
   2.50000000       4.33012676      -4.00000000       346.949097       2.10577559    
   2.50000000       4.33012676      -3.00000000       346.949097       2.10577559    
   3.01776695       3.93283010      -3.00000000       346.949097       2.10577559    
   3.01776695       3.93283010      -4.00000000       346.949097       2.10577559    
   2.50000000       4.33012676      -3.00000000       355.677124       2.09075046    
   2.50000000       4.33012676      -2.00000000       355.677124       2.09075046    
   3.01776695       3.93283010      -2.00000000       355.677124       2.09075046    
   3.01776695       3.93283010      -3.00000000       355.677124       2.09075046    
   2.50000000       4.33012676      -2.00000000       363.551727       2.08150697    
   2.50000000       4.33012676      -1.00000000       363.551727       2.08150697    
   3.01776695       3.93283010      -1.00000000       363.551727       2.08150697    
   3.01776695       3.93283010      -2.00000000       363.551727       2.08150697    
   2.50000000       4.33012676      -1.00000000       370.504364       2.07749724    
   2.50000000       4.33012676       0.00000000       370.504364       2.07749724    
   3.01776695       3.93283010       0.00000000       370.504364       2.07749724    
   3.01776695       3.93283010      -1.00000000       370.504364       2.07749724    
   3.01776695       3.93283010      -10.0000000       312.242615       2.55311346    
   3.01776695       3.93283010      -9.00000000       312.242615       2.55311346    
   3.53553391       3.53553391      -9.00000000       312.242615       2.55311346    
   3.53553391       3.53553391      -10.0000000       312.242615       2.55311346    
   3.01776695       3.93283010      -9.00000000       324.279724       2.30991769    
   3.01776695       3.93283010      -8.00000000       324.279724       2.30991769    
   3.53553391       3.53553391      -8.00000000       324.279724       2.30991769    
   3.53553391       3.53553391      -9.00000000       324.279724       2.30991769    
   3.01776695       3.93283010      -8.00000000       344.036011       2.19475794    
   3.01776695       3.93283010      -7.00000000       344.036011       2.19475794    
   3.53553391       3.53553391      -7.00000000       344.036011       2.19475794    
   3.53553391       3.53553391      -8.00000000       344.036011       2.19475794    
   3.01776695       3.93283010      -7.00000000       362.256531       2.12689614    
   3.01776695       3.93283010      -6.00000000       362.256531       2.12689614    
   3.53553391       3.53553391      -6.00000000       362.256531       2.12689614    
   3.53553391       3.53553391      -7.00000000       362.256531       2.12689614    
   3.01776695       3.93283010      -6.00000000       378.279175       2.08329391    
   3.01776695       3.93283010      -5.00000000       378.279175       2.08329391    
   3.53553391       3.53553391      -5.00000000       378.279175       2.08329391    
   3.53553391       3.53553391      -6.00000000       378.279175       2.08329391    
   3.01776695       3.93283010      -5.00000000       392.352966       2.05397558    
   3.01776695       3.93283010      -4.00000000       392.352966       2.05397558    
   3.53553391       3.53553391      -4.00000000       392.352966       2.05397558    
   3.53553391       3.53553391      -5.00000000       392.352966       2.05397558    
   3.01776695       3.93283010      -4.00000000       404.752045       2.03417683    
   3.01776695       3.93283010      -3.00000000       404.752045       2.03417683    
   3.53553391       3.53553391      -3.00000000       404.752045       2.03417683    
   3.53553391       3.53553391      -4.00000000       404.752045       2.03417683    
   3.01776695       3.93283010      -3.00000000       415.670685       2.02091384    
   3.01776695       3.93283010      -2.00000000       415.670685       2.02091384    
   3.53553391       3.53553391      -2.00000000       415.670685       2.02091384    
   3.53553391       3.53553391      -3.00000000       415.670685       2.02091384    
   3.01776695       3.93283010      -2.00000000       425.325653       2.01277542    
   3.01776695       3.93283010      -1.00000000       425.325653       2.01277542    
   3.53553391       3.53553391      -1.00000000       425.325653       2.01277542    
   3.53553391       3.53553391      -2.00000000       425.325653       2.01277542    
   3.01776695       3.93283010      -1.00000000       433.702209       2.00920177    
   3.01776695       3.93283010       0.00000000       433.702209       2.00920177    
   3.53553391       3.53553391       0.00000000       433.702209       2.00920177    
   3.53553391       3.53553391      -1.00000000       433.702209       2.00920177    
   1.29409504       4.82962894      -10.0000000       258.074860       2.94520307    
   1.29409504       4.82962894      -9.00000000       258.074860       2.94520307    
   1.89704800       4.57987785      -9.00000000       258.074860       2.94520307    
   1.89704800       4.57987785      -10.0000000       258.074860       2.94520307    
   1.29409504       4.82962894      -9.00000000       225.526443       2.76723695    
   1.29409504       4.82962894      -8.00000000       225.526443       2.76723695    
   1.89704800       4.57987785      -8.00000000       225.526443       2.76723695    
   1.89704800       4.57987785      -9.00000000       225.526443       2.76723695    
   1.29409504       4.82962894      -8.00000000       216.584213       2.65498424    
   1.29409504       4.82962894      -7.00000000       216.584213       2.65498424    
   1.89704800       4.57987785      -7.00000000       216.584213       2.65498424    
   1.89704800       4.57987785      -8.00000000       216.584213       2.65498424    
   1.29409504       4.82962894      -7.00000000       214.247559       2.57696724    
   1.29409504       4.82962894      -6.00000000       214.247559       2.57696724    
   1.89704800       4.57987785      -6.00000000       214.247559       2.57696724    
   1.89704800       4.57987785      -7.00000000       214.247559       2.57696724    
   1.29409504       4.82962894      -6.00000000       214.761536       2.52139187    
   1.29409504       4.82962894      -5.00000000       214.761536       2.52139187    
   1.89704800       4.57987785      -5.00000000       214.761536       2.52139187    
   1.89704800       4.57987785      -6.00000000       214.761536       2.52139187    
   1.29409504       4.82962894      -5.00000000       216.706284       2.48138833    
   1.29409504       4.82962894      -4.00000000       216.706284       2.48138833    
   1.89704800       4.57987785      -4.00000000       216.706284       2.48138833    
   1.89704800       4.57987785      -5.00000000       216.706284       2.48138833    
   1.29409504       4.82962894      -4.00000000       219.461197       2.45311785    
   1.29409504       4.82962894      -3.00000000       219.461197       2.45311785    
   1.89704800       4.57987785      -3.00000000       219.461197       2.45311785    