 VARIABLES="X" "Y" "Z" "abs(p) (Pa)" "angle(p) (rad)"
ZONE N=   1080,E =     600, F=FEPOINT, ET=QUADRILATERAL
   4.82962894       1.29409504      -10.0000000       2125.00830      -1.47760856    
   4.82962894       1.29409504      -9.00000000       2125.00830      -1.47760856    
   4.91481400      0.647047520      -9.00000000       2125.00830      -1.47760856    
   4.91481400      0.647047520      -10.0000000       2125.00830      -1.47760856    
   4.82962894       1.29409504      -9.00000000       2667.14404      -1.48492765    
   4.82962894       1.29409504      -8.00000000       2667.14404      -1.48492765    
   4.91481400      0.647047520      -8.00000000       2667.14404      -1.48492765    
   4.91481400      0.647047520      -9.00000000       2667.14404      -1.48492765    
   4.82962894       1.29409504      -8.00000000       2996.94263      -1.48627591    
   4.82962894       1.29409504      -7.00000000       2996.94263      -1.48627591    
   4.91481400      0.647047520      -7.00000000       2996.94263      -1.48627591    
   4.91481400      0.647047520      -8.00000000       2996.94263      -1.48627591    
   4.82962894       1.29409504      -7.00000000       3242.20166      -1.48580897    
   4.82962894       1.29409504      -6.00000000       3242.20166      -1.48580897    
   4.91481400      0.647047520      -6.00000000       3242.20166      -1.48580897    
   4.91481400      0.647047520      -7.00000000       3242.20166      -1.48580897    
   4.82962894       1.29409504      -6.00000000       3442.41211      -1.48449564    
   4.82962894       1.29409504      -5.00000000       3442.41211      -1.48449564    
   4.91481400      0.647047520      -5.00000000       3442.41211      -1.48449564    
   4.91481400      0.647047520      -6.00000000       3442.41211      -1.48449564    
   4.82962894       1.29409504      -5.00000000       3618.51196      -1.48275650    
   4.82962894       1.29409504      -4.00000000       3618.51196      -1.48275650    
   4.91481400      0.647047520      -4.00000000       3618.51196      -1.48275650    
   4.91481400      0.647047520      -5.00000000       3618.51196      -1.48275650    
   4.82962894       1.29409504      -4.00000000       3783.66113      -1.48083580    
   4.82962894       1.29409504      -3.00000000       3783.66113      -1.48083580    
   4.91481400      0.647047520      -3.00000000       3783.66113      -1.48083580    
   4.91481400      0.647047520      -4.00000000       3783.66113      -1.48083580    
   4.82962894       1.29409504      -3.00000000       3947.24023      -1.47891510    
   4.82962894       1.29409504      -2.00000000       3947.24023      -1.47891510    
   4.91481400      0.647047520      -2.00000000       3947.24023      -1.47891510    
   4.91481400      0.647047520      -3.00000000       3947.24023      -1.47891510    
   4.82962894       1.29409504      -2.00000000       4120.77197      -1.47720635    
   4.82962894       1.29409504      -1.00000000       4120.77197      -1.47720635    
   4.91481400      0.647047520      -1.00000000       4120.77197      -1.47720635    
   4.91481400      0.647047520      -2.00000000       4120.77197      -1.47720635    
   4.82962894       1.29409504      -1.00000000       4318.39551      -1.47600257    
   4.82962894       1.29409504       0.00000000       4318.39551      -1.47600257    
   4.91481400      0.647047520       0.00000000       4318.39551      -1.47600257    
   4.91481400      0.647047520      -1.00000000       4318.39551      -1.47600257    
   4.91481400      0.647047520      -10.0000000       2157.43628      -1.47747815    
   4.91481400      0.647047520      -9.00000000       2157.43628      -1.47747815    
   5.00000000       0.00000000      -9.00000000       2157.43628      -1.47747815    
   5.00000000       0.00000000      -10.0000000       2157.43628      -1.47747815    
   4.91481400      0.647047520      -9.00000000       2708.39062      -1.48482823    
   4.91481400      0.647047520      -8.00000000       2708.39062      -1.48482823    
   5.00000000       0.00000000      -8.00000000       2708.39062      -1.48482823    
   5.00000000       0.00000000      -9.00000000       2708.39062      -1.48482823    
   4.91481400      0.647047520      -8.00000000       3043.65723      -1.48618865    
   4.91481400      0.647047520      -7.00000000       3043.65723      -1.48618865    
   5.00000000       0.00000000      -7.00000000       3043.65723      -1.48618865    
   5.00000000       0.00000000      -8.00000000       3043.65723      -1.48618865    
   4.91481400      0.647047520      -7.00000000       3292.98535      -1.48572791    
   4.91481400      0.647047520      -6.00000000       3292.98535      -1.48572791    
   5.00000000       0.00000000      -6.00000000       3292.98535      -1.48572791    
   5.00000000       0.00000000      -7.00000000       3292.98535      -1.48572791    
   4.91481400      0.647047520      -6.00000000       3496.52344      -1.48441803    
   4.91481400      0.647047520      -5.00000000       3496.52344      -1.48441803    
   5.00000000       0.00000000      -5.00000000       3496.52344      -1.48441803    
   5.00000000       0.00000000      -6.00000000       3496.52344      -1.48441803    
   4.91481400      0.647047520      -5.00000000       3675.54492      -1.48268080    
   4.91481400      0.647047520      -4.00000000       3675.54492      -1.48268080    
   5.00000000       0.00000000      -4.00000000       3675.54492      -1.48268080    
   5.00000000       0.00000000      -5.00000000       3675.54492      -1.48268080    
   4.91481400      0.647047520      -4.00000000       3843.43433      -1.48076212    
   4.91481400      0.647047520      -3.00000000       3843.43433      -1.48076212    
   5.00000000       0.00000000      -3.00000000       3843.43433      -1.48076212    
   5.00000000       0.00000000      -4.00000000       3843.43433      -1.48076212    
   4.91481400      0.647047520      -3.00000000       4009.73291      -1.47884250    
   4.91481400      0.647047520      -2.00000000       4009.73291      -1.47884250    
   5.00000000       0.00000000      -2.00000000       4009.73291      -1.47884250    
   5.00000000       0.00000000      -3.00000000       4009.73291      -1.47884250    
   4.91481400      0.647047520      -2.00000000       4186.14844      -1.47713542    
   4.91481400      0.647047520      -1.00000000       4186.14844      -1.47713542    
   5.00000000       0.00000000      -1.00000000       4186.14844      -1.47713542    
   5.00000000       0.00000000      -2.00000000       4186.14844      -1.47713542    
   4.91481400      0.647047520      -1.00000000       4387.09326      -1.47593462    
   4.91481400      0.647047520       0.00000000       4387.09326      -1.47593462    
   5.00000000       0.00000000       0.00000000       4387.09326      -1.47593462    
   5.00000000       0.00000000      -1.00000000       4387.09326      -1.47593462    
   4.33012676       2.50000000      -10.0000000       1947.76257      -1.47775269    
   4.33012676       2.50000000      -9.00000000       1947.76257      -1.47775269    
   4.57987785       1.89704800      -9.00000000       1947.76257      -1.47775269    
   4.57987785       1.89704800      -10.0000000       1947.76257      -1.47775269    
   4.33012676       2.50000000      -9.00000000       2444.13745      -1.48503780    
   4.33012676       2.50000000      -8.00000000       2444.13745      -1.48503780    
   4.57987785       1.89704800      -8.00000000       2444.13745      -1.48503780    
   4.57987785       1.89704800      -9.00000000       2444.13745      -1.48503780    
   4.33012676       2.50000000      -8.00000000       2745.99146      -1.48637259    
   4.33012676       2.50000000      -7.00000000       2745.99146      -1.48637259    
   4.57987785       1.89704800      -7.00000000       2745.99146      -1.48637259    
   4.57987785       1.89704800      -8.00000000       2745.99146      -1.48637259    
   4.33012676       2.50000000      -7.00000000       2970.46899      -1.48589885    
   4.33012676       2.50000000      -6.00000000       2970.46899      -1.48589885    
   4.57987785       1.89704800      -6.00000000       2970.46899      -1.48589885    
   4.57987785       1.89704800      -7.00000000       2970.46899      -1.48589885    
   4.33012676       2.50000000      -6.00000000       3153.71094      -1.48458171    
   4.33012676       2.50000000      -5.00000000       3153.71094      -1.48458171    
   4.57987785       1.89704800      -5.00000000       3153.71094      -1.48458171    
   4.57987785       1.89704800      -6.00000000       3153.71094      -1.48458171    
   4.33012676       2.50000000      -5.00000000       3314.88794      -1.48284030    
   4.33012676       2.50000000      -4.00000000       3314.88794      -1.48284030    
   4.57987785       1.89704800      -4.00000000       3314.88794      -1.48284030    
   4.57987785       1.89704800      -5.00000000       3314.88794      -1.48284030    
   4.33012676       2.50000000      -4.00000000       3466.03833      -1.48091781    
   4.33012676       2.50000000      -3.00000000       3466.03833      -1.48091781    
   4.57987785       1.89704800      -3.00000000       3466.03833      -1.48091781    
   4.57987785       1.89704800      -4.00000000       3466.03833      -1.48091781    
   4.33012676       2.50000000      -3.00000000       3615.74561      -1.47899485    
   4.33012676       2.50000000      -2.00000000       3615.74561      -1.47899485    
   4.57987785       1.89704800      -2.00000000       3615.74561      -1.47899485    
   4.57987785       1.89704800      -3.00000000       3615.74561      -1.47899485    
   4.33012676       2.50000000      -2.00000000       3774.57202      -1.47728443    
   4.33012676       2.50000000      -1.00000000       3774.57202      -1.47728443    
   4.57987785       1.89704800      -1.00000000       3774.57202      -1.47728443    
   4.57987785       1.89704800      -2.00000000       3774.57202      -1.47728443    
   4.33012676       2.50000000      -1.00000000       3955.40674      -1.47607791    
   4.33012676       2.50000000       0.00000000       3955.40674      -1.47607791    
   4.57987785       1.89704800       0.00000000       3955.40674      -1.47607791    
   4.57987785       1.89704800      -1.00000000       3955.40674      -1.47607791    
   4.57987785       1.89704800      -10.0000000       2042.84290      -1.47734296    
   4.57987785       1.89704800      -9.00000000       2042.84290      -1.47734296    
   4.82962894       1.29409504      -9.00000000       2042.84290      -1.47734296    
   4.82962894       1.29409504      -10.0000000       2042.84290      -1.47734296    
   4.57987785       1.89704800      -9.00000000       2565.06445      -1.48472500    
   4.57987785       1.89704800      -8.00000000       2565.06445      -1.48472500    
   4.82962894       1.29409504      -8.00000000       2565.06445      -1.48472500    
   4.82962894       1.29409504      -9.00000000       2565.06445      -1.48472500    
   4.57987785       1.89704800      -8.00000000       2882.95190      -1.48609805    
   4.57987785       1.89704800      -7.00000000       2882.95190      -1.48609805    
   4.82962894       1.29409504      -7.00000000       2882.95190      -1.48609805    
   4.82962894       1.29409504      -8.00000000       2882.95190      -1.48609805    
   4.57987785       1.89704800      -7.00000000       3119.35522      -1.48564351    
   4.57987785       1.89704800      -6.00000000       3119.35522      -1.48564351    
   4.82962894       1.29409504      -6.00000000       3119.35522      -1.48564351    
   4.82962894       1.29409504      -7.00000000       3119.35522      -1.48564351    
   4.57987785       1.89704800      -6.00000000       3312.34912      -1.48433697    
   4.57987785       1.89704800      -5.00000000       3312.34912      -1.48433697    
   4.82962894       1.29409504      -5.00000000       3312.34912      -1.48433697    
   4.82962894       1.29409504      -6.00000000       3312.34912      -1.48433697    
   4.57987785       1.89704800      -5.00000000       3482.09546      -1.48260260    
   4.57987785       1.89704800      -4.00000000       3482.09546      -1.48260260    
   4.82962894       1.29409504      -4.00000000       3482.09546      -1.48260260    
   4.82962894       1.29409504      -5.00000000       3482.09546      -1.48260260    
   4.57987785       1.89704800      -4.00000000       3641.28540      -1.48068523    
   4.57987785       1.89704800      -3.00000000       3641.28540      -1.48068523    
   4.82962894       1.29409504      -3.00000000       3641.28540      -1.48068523    
   4.82962894       1.29409504      -4.00000000       3641.28540      -1.48068523    
   4.57987785       1.89704800      -3.00000000       3798.96802      -1.47876740    
   4.57987785       1.89704800      -2.00000000       3798.96802      -1.47876740    
   4.82962894       1.29409504      -2.00000000       3798.96802      -1.47876740    
   4.82962894       1.29409504      -3.00000000       3798.96802      -1.47876740    
   4.57987785       1.89704800      -2.00000000       3966.25049      -1.47706258    
   4.57987785       1.89704800      -1.00000000       3966.25049      -1.47706258    
   4.82962894       1.29409504      -1.00000000       3966.25049      -1.47706258    
   4.82962894       1.29409504      -2.00000000       3966.25049      -1.47706258    
   4.57987785       1.89704800      -1.00000000       4156.81836      -1.47586370    
   4.57987785       1.89704800       0.00000000       4156.81836      -1.47586370    
   4.82962894       1.29409504       0.00000000       4156.81836      -1.47586370    
   4.82962894       1.29409504      -1.00000000       4156.81836      -1.47586370    
   3.53553391       3.53553391      -10.0000000       1637.78101      -1.47794008    
   3.53553391       3.53553391      -9.00000000       1637.78101      -1.47794008    
   3.93283010       3.01776695      -9.00000000       1637.78101      -1.47794008    
   3.93283010       3.01776695      -10.0000000       1637.78101      -1.47794008    
   3.53553391       3.53553391      -9.00000000       2054.56421      -1.48518050    
   3.53553391       3.53553391      -8.00000000       2054.56421      -1.48518050    
   3.93283010       3.01776695      -8.00000000       2054.56421      -1.48518050    
   3.93283010       3.01776695      -9.00000000       2054.56421      -1.48518050    
   3.53553391       3.53553391      -8.00000000       2307.90381      -1.48649788    
   3.53553391       3.53553391      -7.00000000       2307.90381      -1.48649788    
   3.93283010       3.01776695      -7.00000000       2307.90381      -1.48649788    
   3.93283010       3.01776695      -8.00000000       2307.90381      -1.48649788    
   3.53553391       3.53553391      -7.00000000       2496.30469      -1.48601592    
   3.53553391       3.53553391      -6.00000000       2496.30469      -1.48601592    
   3.93283010       3.01776695      -6.00000000       2496.30469      -1.48601592    
   3.93283010       3.01776695      -7.00000000       2496.30469      -1.48601592    
   3.53553391       3.53553391      -6.00000000       2650.08545      -1.48469353    
   3.53553391       3.53553391      -5.00000000       2650.08545      -1.48469353    
   3.93283010       3.01776695      -5.00000000       2650.08545      -1.48469353    
   3.93283010       3.01776695      -6.00000000       2650.08545      -1.48469353    
   3.53553391       3.53553391      -5.00000000       2785.35474      -1.48294926    
   3.53553391       3.53553391      -4.00000000       2785.35474      -1.48294926    
   3.93283010       3.01776695      -4.00000000       2785.35474      -1.48294926    
   3.93283010       3.01776695      -5.00000000       2785.35474      -1.48294926    
   3.53553391       3.53553391      -4.00000000       2912.20874      -1.48102415    
   3.53553391       3.53553391      -3.00000000       2912.20874      -1.48102415    
   3.93283010       3.01776695      -3.00000000       2912.20874      -1.48102415    
   3.93283010       3.01776695      -4.00000000       2912.20874      -1.48102415    
   3.53553391       3.53553391      -3.00000000       3037.84717      -1.47909904    
   3.53553391       3.53553391      -2.00000000       3037.84717      -1.47909904    
   3.93283010       3.01776695      -2.00000000       3037.84717      -1.47909904    
   3.93283010       3.01776695      -3.00000000       3037.84717      -1.47909904    
   3.53553391       3.53553391      -2.00000000       3171.13696      -1.47738612    
   3.53553391       3.53553391      -1.00000000       3171.13696      -1.47738612    
   3.93283010       3.01776695      -1.00000000       3171.13696      -1.47738612    
   3.93283010       3.01776695      -2.00000000       3171.13696      -1.47738612    
   3.53553391       3.53553391      -1.00000000       3322.86377      -1.47617602    
   3.53553391       3.53553391       0.00000000       3322.86377      -1.47617602    
   3.93283010       3.01776695       0.00000000       3322.86377      -1.47617602    
   3.93283010       3.01776695      -1.00000000       3322.86377      -1.47617602    
   3.93283010       3.01776695      -10.0000000       1789.03015      -1.47717965    
   3.93283010       3.01776695      -9.00000000       1789.03015      -1.47717965    
   4.33012676       2.50000000      -9.00000000       1789.03015      -1.47717965    
   4.33012676       2.50000000      -10.0000000       1789.03015      -1.47717965    
   3.93283010       3.01776695      -9.00000000       2246.93335      -1.48460042    
   3.93283010       3.01776695      -8.00000000       2246.93335      -1.48460042    
   4.33012676       2.50000000      -8.00000000       2246.93335      -1.48460042    
   4.33012676       2.50000000      -9.00000000       2246.93335      -1.48460042    
   3.93283010       3.01776695      -8.00000000       2525.77808      -1.48598838    
   3.93283010       3.01776695      -7.00000000       2525.77808      -1.48598838    
   4.33012676       2.50000000      -7.00000000       2525.77808      -1.48598838    
   4.33012676       2.50000000      -8.00000000       2525.77808      -1.48598838    
   3.93283010       3.01776695      -7.00000000       2733.14771      -1.48554182    
   3.93283010       3.01776695      -6.00000000       2733.14771      -1.48554182    
   4.33012676       2.50000000      -6.00000000       2733.14771      -1.48554182    
   4.33012676       2.50000000      -7.00000000       2733.14771      -1.48554182    
   3.93283010       3.01776695      -6.00000000       2902.44727      -1.48423994    
   3.93283010       3.01776695      -5.00000000       2902.44727      -1.48423994    
   4.33012676       2.50000000      -5.00000000       2902.44727      -1.48423994    
   4.33012676       2.50000000      -6.00000000       2902.44727      -1.48423994    
   3.93283010       3.01776695      -5.00000000       3051.34570      -1.48250830    
   3.93283010       3.01776695      -4.00000000       3051.34570      -1.48250830    
   4.33012676       2.50000000      -4.00000000       3051.34570      -1.48250830    
   4.33012676       2.50000000      -5.00000000       3051.34570      -1.48250830    
   3.93283010       3.01776695      -4.00000000       3190.98950      -1.48059285    
   3.93283010       3.01776695      -3.00000000       3190.98950      -1.48059285    
   4.33012676       2.50000000      -3.00000000       3190.98950      -1.48059285    
   4.33012676       2.50000000      -4.00000000       3190.98950      -1.48059285    
   3.93283010       3.01776695      -3.00000000       3329.31519      -1.47867715    
   3.93283010       3.01776695      -2.00000000       3329.31519      -1.47867715    
   4.33012676       2.50000000      -2.00000000       3329.31519      -1.47867715    
   4.33012676       2.50000000      -3.00000000       3329.31519      -1.47867715    
   3.93283010       3.01776695      -2.00000000       3476.05518      -1.47697437    
   3.93283010       3.01776695      -1.00000000       3476.05518      -1.47697437    
   4.33012676       2.50000000      -1.00000000       3476.05518      -1.47697437    
   4.33012676       2.50000000      -2.00000000       3476.05518      -1.47697437    
   3.93283010       3.01776695      -1.00000000       3643.26440      -1.47577882    
   3.93283010       3.01776695       0.00000000       3643.26440      -1.47577882    
   4.33012676       2.50000000       0.00000000       3643.26440      -1.47577882    
   4.33012676       2.50000000      -1.00000000       3643.26440      -1.47577882    
   2.50000000       4.33012676      -10.0000000       1216.18677      -1.47823966    
   2.50000000       4.33012676      -9.00000000       1216.18677      -1.47823966    
   3.01776695       3.93283010      -9.00000000       1216.18677      -1.47823966    
   3.01776695       3.93283010      -10.0000000       1216.18677      -1.47823966    
   2.50000000       4.33012676      -9.00000000       1524.97791      -1.48541009    
   2.50000000       4.33012676      -8.00000000       1524.97791      -1.48541009    
   3.01776695       3.93283010      -8.00000000       1524.97791      -1.48541009    
   3.01776695       3.93283010      -9.00000000       1524.97791      -1.48541009    
   2.50000000       4.33012676      -8.00000000       1712.54028      -1.48669970    
   2.50000000       4.33012676      -7.00000000       1712.54028      -1.48669970    
   3.01776695       3.93283010      -7.00000000       1712.54028      -1.48669970    
   3.01776695       3.93283010      -8.00000000       1712.54028      -1.48669970    
   2.50000000       4.33012676      -7.00000000       1852.02112      -1.48620355    
   2.50000000       4.33012676      -6.00000000       1852.02112      -1.48620355    
   3.01776695       3.93283010      -6.00000000       1852.02112      -1.48620355    
   3.01776695       3.93283010      -7.00000000       1852.02112      -1.48620355    
   2.50000000       4.33012676      -6.00000000       1965.86194      -1.48487306    
   2.50000000       4.33012676      -5.00000000       1965.86194      -1.48487306    
   3.01776695       3.93283010      -5.00000000       1965.86194      -1.48487306    
   3.01776695       3.93283010      -6.00000000       1965.86194      -1.48487306    
   2.50000000       4.33012676      -5.00000000       2066.00293      -1.48312294    
   2.50000000       4.33012676      -4.00000000       2066.00293      -1.48312294    
   3.01776695       3.93283010      -4.00000000       2066.00293      -1.48312294    
   3.01776695       3.93283010      -5.00000000       2066.00293      -1.48312294    
   2.50000000       4.33012676      -4.00000000       2159.91675      -1.48119485    
   2.50000000       4.33012676      -3.00000000       2159.91675      -1.48119485    
   3.01776695       3.93283010      -3.00000000       2159.91675      -1.48119485    
   3.01776695       3.93283010      -4.00000000       2159.91675      -1.48119485    
   2.50000000       4.33012676      -3.00000000       2252.92188      -1.47926652    
   2.50000000       4.33012676      -2.00000000       2252.92188      -1.47926652    
   3.01776695       3.93283010      -2.00000000       2252.92188      -1.47926652    
   3.01776695       3.93283010      -3.00000000       2252.92188      -1.47926652    
   2.50000000       4.33012676      -2.00000000       2351.59814      -1.47754943    
   2.50000000       4.33012676      -1.00000000       2351.59814      -1.47754943    
   3.01776695       3.93283010      -1.00000000       2351.59814      -1.47754943    
   3.01776695       3.93283010      -2.00000000       2351.59814      -1.47754943    
   2.50000000       4.33012676      -1.00000000       2463.87549      -1.47633314    
   2.50000000       4.33012676       0.00000000       2463.87549      -1.47633314    
   3.01776695       3.93283010       0.00000000       2463.87549      -1.47633314    
   3.01776695       3.93283010      -1.00000000       2463.87549      -1.47633314    
   3.01776695       3.93283010      -10.0000000       1413.29736      -1.47694266    
   3.01776695       3.93283010      -9.00000000       1413.29736      -1.47694266    
   3.53553391       3.53553391      -9.00000000       1413.29736      -1.47694266    
   3.53553391       3.53553391      -10.0000000       1413.29736      -1.47694266    
   3.01776695       3.93283010      -9.00000000       1775.67737      -1.48442054    
   3.01776695       3.93283010      -8.00000000       1775.67737      -1.48442054    
   3.53553391       3.53553391      -8.00000000       1775.67737      -1.48442054    
   3.53553391       3.53553391      -9.00000000       1775.67737      -1.48442054    
   3.01776695       3.93283010      -8.00000000       1996.47766      -1.48583055    
   3.01776695       3.93283010      -7.00000000       1996.47766      -1.48583055    
   3.53553391       3.53553391      -7.00000000       1996.47766      -1.48583055    
   3.53553391       3.53553391      -8.00000000       1996.47766      -1.48583055    
   3.01776695       3.93283010      -7.00000000       2160.67944      -1.48539495    
   3.01776695       3.93283010      -6.00000000       2160.67944      -1.48539495    
   3.53553391       3.53553391      -6.00000000       2160.67944      -1.48539495    
   3.53553391       3.53553391      -7.00000000       2160.67944      -1.48539495    
   3.01776695       3.93283010      -6.00000000       2294.74658      -1.48409951    
   3.01776695       3.93283010      -5.00000000       2294.74658      -1.48409951    
   3.53553391       3.53553391      -5.00000000       2294.74658      -1.48409951    
   3.53553391       3.53553391      -6.00000000       2294.74658      -1.48409951    
   3.01776695       3.93283010      -5.00000000       2412.65454      -1.48237157    
   3.01776695       3.93283010      -4.00000000       2412.65454      -1.48237157    
   3.53553391       3.53553391      -4.00000000       2412.65454      -1.48237157    
   3.53553391       3.53553391      -5.00000000       2412.65454      -1.48237157    
   3.01776695       3.93283010      -4.00000000       2523.23193      -1.48045957    
   3.01776695       3.93283010      -3.00000000       2523.23193      -1.48045957    
   3.53553391       3.53553391      -3.00000000       2523.23193      -1.48045957    
   3.53553391       3.53553391      -4.00000000       2523.23193      -1.48045957    
   3.01776695       3.93283010      -3.00000000       2632.77051      -1.47854602    
   3.01776695       3.93283010      -2.00000000       2632.77051      -1.47854602    
   3.53553391       3.53553391      -2.00000000       2632.77051      -1.47854602    
   3.53553391       3.53553391      -3.00000000       2632.77051      -1.47854602    
   3.01776695       3.93283010      -2.00000000       2748.97412      -1.47684646    
   3.01776695       3.93283010      -1.00000000       2748.97412      -1.47684646    
   3.53553391       3.53553391      -1.00000000       2748.97412      -1.47684646    
   3.53553391       3.53553391      -2.00000000       2748.97412      -1.47684646    
   3.01776695       3.93283010      -1.00000000       2881.42310      -1.47565627    
   3.01776695       3.93283010       0.00000000       2881.42310      -1.47565627    
   3.53553391       3.53553391       0.00000000       2881.42310      -1.47565627    
   3.53553391       3.53553391      -1.00000000       2881.42310      -1.47565627    
   1.29409504       4.82962894      -10.0000000       711.710693      -1.47892940    
   1.29409504       4.82962894      -9.00000000       711.710693      -1.47892940    
   1.89704800       4.57987785      -9.00000000       711.710693      -1.47892940    
   1.89704800       4.57987785      -10.0000000       711.710693      -1.47892940    
   1.29409504       4.82962894      -9.00000000       891.467346      -1.48593676    
   1.29409504       4.82962894      -8.00000000       891.467346      -1.48593676    
   1.89704800       4.57987785      -8.00000000       891.467346      -1.48593676    
   1.89704800       4.57987785      -9.00000000       891.467346      -1.48593676    
   1.29409504       4.82962894      -8.00000000       1000.46448      -1.48716283    
   1.29409504       4.82962894      -7.00000000       1000.46448      -1.48716283    
   1.89704800       4.57987785      -7.00000000       1000.46448      -1.48716283    
   1.89704800       4.57987785      -8.00000000       1000.46448      -1.48716283    
   1.29409504       4.82962894      -7.00000000       1081.52271      -1.48663676    
   1.29409504       4.82962894      -6.00000000       1081.52271      -1.48663676    
   1.89704800       4.57987785      -6.00000000       1081.52271      -1.48663676    
   1.89704800       4.57987785      -7.00000000       1081.52271      -1.48663676    
   1.29409504       4.82962894      -6.00000000       1147.66760      -1.48528767    
   1.29409504       4.82962894      -5.00000000       1147.66760      -1.48528767    
   1.89704800       4.57987785      -5.00000000       1147.66760      -1.48528767    
   1.89704800       4.57987785      -6.00000000       1147.66760      -1.48528767    
   1.29409504       4.82962894      -5.00000000       1205.86072      -1.48352659    
   1.29409504       4.82962894      -4.00000000       1205.86072      -1.48352659    
   1.89704800       4.57987785      -4.00000000       1205.86072      -1.48352659    
   1.89704800       4.57987785      -5.00000000       1205.86072      -1.48352659    
   1.29409504       4.82962894      -4.00000000       1260.42871      -1.48159003    
   1.29409504       4.82962894      -3.00000000       1260.42871      -1.48159003    
   1.89704800       4.57987785      -3.00000000       1260.42871      -1.48159003    