 VARIABLES="X" "Y" "Z" "abs(p) (Pa)" "angle(p) (rad)"
ZONE N=   1080,E =     600, F=FEPOINT, ET=QUADRILATERAL
   4.82962894       1.29409504      -10.0000000       123.247765       1.57079601    
   4.82962894       1.29409504      -9.00000000       123.247765       1.57079601    
   4.91481400      0.647047520      -9.00000000       123.247765       1.57079601    
   4.91481400      0.647047520      -10.0000000       123.247765       1.57079601    
   4.82962894       1.29409504      -9.00000000       126.040756       1.57079601    
   4.82962894       1.29409504      -8.00000000       126.040756       1.57079601    
   4.91481400      0.647047520      -8.00000000       126.040756       1.57079601    
   4.91481400      0.647047520      -9.00000000       126.040756       1.57079601    
   4.82962894       1.29409504      -8.00000000       126.056305       1.57079601    
   4.82962894       1.29409504      -7.00000000       126.056305       1.57079601    
   4.91481400      0.647047520      -7.00000000       126.056305       1.57079601    
   4.91481400      0.647047520      -8.00000000       126.056305       1.57079601    
   4.82962894       1.29409504      -7.00000000       126.076851       1.57079566    
   4.82962894       1.29409504      -6.00000000       126.076851       1.57079566    
   4.91481400      0.647047520      -6.00000000       126.076851       1.57079566    
   4.91481400      0.647047520      -7.00000000       126.076851       1.57079566    
   4.82962894       1.29409504      -6.00000000       126.028694       1.57079566    
   4.82962894       1.29409504      -5.00000000       126.028694       1.57079566    
   4.91481400      0.647047520      -5.00000000       126.028694       1.57079566    
   4.91481400      0.647047520      -6.00000000       126.028694       1.57079566    
   4.82962894       1.29409504      -5.00000000       126.028976       1.57079601    
   4.82962894       1.29409504      -4.00000000       126.028976       1.57079601    
   4.91481400      0.647047520      -4.00000000       126.028976       1.57079601    
   4.91481400      0.647047520      -5.00000000       126.028976       1.57079601    
   4.82962894       1.29409504      -4.00000000       126.125542       1.57079506    
   4.82962894       1.29409504      -3.00000000       126.125542       1.57079506    
   4.91481400      0.647047520      -3.00000000       126.125542       1.57079506    
   4.91481400      0.647047520      -4.00000000       126.125542       1.57079506    
   4.82962894       1.29409504      -3.00000000       126.086182       1.57079542    
   4.82962894       1.29409504      -2.00000000       126.086182       1.57079542    
   4.91481400      0.647047520      -2.00000000       126.086182       1.57079542    
   4.91481400      0.647047520      -3.00000000       126.086182       1.57079542    
   4.82962894       1.29409504      -2.00000000       126.118004       1.57079518    
   4.82962894       1.29409504      -1.00000000       126.118004       1.57079518    
   4.91481400      0.647047520      -1.00000000       126.118004       1.57079518    
   4.91481400      0.647047520      -2.00000000       126.118004       1.57079518    
   4.82962894       1.29409504      -1.00000000       125.701988       1.57079470    
   4.82962894       1.29409504       0.00000000       125.701988       1.57079470    
   4.91481400      0.647047520       0.00000000       125.701988       1.57079470    
   4.91481400      0.647047520      -1.00000000       125.701988       1.57079470    
   4.91481400      0.647047520      -10.0000000       123.249710      -1.57079649    
   4.91481400      0.647047520      -9.00000000       123.249710      -1.57079649    
   5.00000000       0.00000000      -9.00000000       123.249710      -1.57079649    
   5.00000000       0.00000000      -10.0000000       123.249710      -1.57079649    
   4.91481400      0.647047520      -9.00000000       126.043266      -1.57079661    
   4.91481400      0.647047520      -8.00000000       126.043266      -1.57079661    
   5.00000000       0.00000000      -8.00000000       126.043266      -1.57079661    
   5.00000000       0.00000000      -9.00000000       126.043266      -1.57079661    
   4.91481400      0.647047520      -8.00000000       126.058960      -1.57079661    
   4.91481400      0.647047520      -7.00000000       126.058960      -1.57079661    
   5.00000000       0.00000000      -7.00000000       126.058960      -1.57079661    
   5.00000000       0.00000000      -8.00000000       126.058960      -1.57079661    
   4.91481400      0.647047520      -7.00000000       126.079231      -1.57079673    
   4.91481400      0.647047520      -6.00000000       126.079231      -1.57079673    
   5.00000000       0.00000000      -6.00000000       126.079231      -1.57079673    
   5.00000000       0.00000000      -7.00000000       126.079231      -1.57079673    
   4.91481400      0.647047520      -6.00000000       126.031158      -1.57079685    
   4.91481400      0.647047520      -5.00000000       126.031158      -1.57079685    
   5.00000000       0.00000000      -5.00000000       126.031158      -1.57079685    
   5.00000000       0.00000000      -6.00000000       126.031158      -1.57079685    
   4.91481400      0.647047520      -5.00000000       126.031097      -1.57079685    
   4.91481400      0.647047520      -4.00000000       126.031097      -1.57079685    
   5.00000000       0.00000000      -4.00000000       126.031097      -1.57079685    
   5.00000000       0.00000000      -5.00000000       126.031097      -1.57079685    
   4.91481400      0.647047520      -4.00000000       126.127510      -1.57079697    
   4.91481400      0.647047520      -3.00000000       126.127510      -1.57079697    
   5.00000000       0.00000000      -3.00000000       126.127510      -1.57079697    
   5.00000000       0.00000000      -4.00000000       126.127510      -1.57079697    
   4.91481400      0.647047520      -3.00000000       126.088364      -1.57079673    
   4.91481400      0.647047520      -2.00000000       126.088364      -1.57079673    
   5.00000000       0.00000000      -2.00000000       126.088364      -1.57079673    
   5.00000000       0.00000000      -3.00000000       126.088364      -1.57079673    
   4.91481400      0.647047520      -2.00000000       126.120232      -1.57079709    
   4.91481400      0.647047520      -1.00000000       126.120232      -1.57079709    
   5.00000000       0.00000000      -1.00000000       126.120232      -1.57079709    
   5.00000000       0.00000000      -2.00000000       126.120232      -1.57079709    
   4.91481400      0.647047520      -1.00000000       125.703735      -1.57079768    
   4.91481400      0.647047520       0.00000000       125.703735      -1.57079768    
   5.00000000       0.00000000       0.00000000       125.703735      -1.57079768    
   5.00000000       0.00000000      -1.00000000       125.703735      -1.57079768    
   4.33012676       2.50000000      -10.0000000       123.249077       1.57079613    
   4.33012676       2.50000000      -9.00000000       123.249077       1.57079613    
   4.57987785       1.89704800      -9.00000000       123.249077       1.57079613    
   4.57987785       1.89704800      -10.0000000       123.249077       1.57079613    
   4.33012676       2.50000000      -9.00000000       126.042305       1.57079589    
   4.33012676       2.50000000      -8.00000000       126.042305       1.57079589    
   4.57987785       1.89704800      -8.00000000       126.042305       1.57079589    
   4.57987785       1.89704800      -9.00000000       126.042305       1.57079589    
   4.33012676       2.50000000      -8.00000000       126.058144       1.57079566    
   4.33012676       2.50000000      -7.00000000       126.058144       1.57079566    
   4.57987785       1.89704800      -7.00000000       126.058144       1.57079566    
   4.57987785       1.89704800      -8.00000000       126.058144       1.57079566    
   4.33012676       2.50000000      -7.00000000       126.078217       1.57079530    
   4.33012676       2.50000000      -6.00000000       126.078217       1.57079530    
   4.57987785       1.89704800      -6.00000000       126.078217       1.57079530    
   4.57987785       1.89704800      -7.00000000       126.078217       1.57079530    
   4.33012676       2.50000000      -6.00000000       126.030396       1.57079554    
   4.33012676       2.50000000      -5.00000000       126.030396       1.57079554    
   4.57987785       1.89704800      -5.00000000       126.030396       1.57079554    
   4.57987785       1.89704800      -6.00000000       126.030396       1.57079554    
   4.33012676       2.50000000      -5.00000000       126.030396       1.57079542    
   4.33012676       2.50000000      -4.00000000       126.030396       1.57079542    
   4.57987785       1.89704800      -4.00000000       126.030396       1.57079542    
   4.57987785       1.89704800      -5.00000000       126.030396       1.57079542    
   4.33012676       2.50000000      -4.00000000       126.127159       1.57079494    
   4.33012676       2.50000000      -3.00000000       126.127159       1.57079494    
   4.57987785       1.89704800      -3.00000000       126.127159       1.57079494    
   4.57987785       1.89704800      -4.00000000       126.127159       1.57079494    
   4.33012676       2.50000000      -3.00000000       126.087837       1.57079458    
   4.33012676       2.50000000      -2.00000000       126.087837       1.57079458    
   4.57987785       1.89704800      -2.00000000       126.087837       1.57079458    
   4.57987785       1.89704800      -3.00000000       126.087837       1.57079458    
   4.33012676       2.50000000      -2.00000000       126.119400       1.57079458    
   4.33012676       2.50000000      -1.00000000       126.119400       1.57079458    
   4.57987785       1.89704800      -1.00000000       126.119400       1.57079458    
   4.57987785       1.89704800      -2.00000000       126.119400       1.57079458    
   4.33012676       2.50000000      -1.00000000       125.703293       1.57079363    
   4.33012676       2.50000000       0.00000000       125.703293       1.57079363    
   4.57987785       1.89704800       0.00000000       125.703293       1.57079363    
   4.57987785       1.89704800      -1.00000000       125.703293       1.57079363    
   4.57987785       1.89704800      -10.0000000       123.249565      -1.57079625    
   4.57987785       1.89704800      -9.00000000       123.249565      -1.57079625    
   4.82962894       1.29409504      -9.00000000       123.249565      -1.57079625    
   4.82962894       1.29409504      -10.0000000       123.249565      -1.57079625    
   4.57987785       1.89704800      -9.00000000       126.043076      -1.57079637    
   4.57987785       1.89704800      -8.00000000       126.043076      -1.57079637    
   4.82962894       1.29409504      -8.00000000       126.043076      -1.57079637    
   4.82962894       1.29409504      -9.00000000       126.043076      -1.57079637    
   4.57987785       1.89704800      -8.00000000       126.058632      -1.57079625    
   4.57987785       1.89704800      -7.00000000       126.058632      -1.57079625    
   4.82962894       1.29409504      -7.00000000       126.058632      -1.57079625    
   4.82962894       1.29409504      -8.00000000       126.058632      -1.57079625    
   4.57987785       1.89704800      -7.00000000       126.079376      -1.57079649    
   4.57987785       1.89704800      -6.00000000       126.079376      -1.57079649    
   4.82962894       1.29409504      -6.00000000       126.079376      -1.57079649    
   4.82962894       1.29409504      -7.00000000       126.079376      -1.57079649    
   4.57987785       1.89704800      -6.00000000       126.030907      -1.57079649    
   4.57987785       1.89704800      -5.00000000       126.030907      -1.57079649    
   4.82962894       1.29409504      -5.00000000       126.030907      -1.57079649    
   4.82962894       1.29409504      -6.00000000       126.030907      -1.57079649    
   4.57987785       1.89704800      -5.00000000       126.031097      -1.57079601    
   4.57987785       1.89704800      -4.00000000       126.031097      -1.57079601    
   4.82962894       1.29409504      -4.00000000       126.031097      -1.57079601    
   4.82962894       1.29409504      -5.00000000       126.031097      -1.57079601    
   4.57987785       1.89704800      -4.00000000       126.127754      -1.57079601    
   4.57987785       1.89704800      -3.00000000       126.127754      -1.57079601    
   4.82962894       1.29409504      -3.00000000       126.127754      -1.57079601    
   4.82962894       1.29409504      -4.00000000       126.127754      -1.57079601    
   4.57987785       1.89704800      -3.00000000       126.088448      -1.57079577    
   4.57987785       1.89704800      -2.00000000       126.088448      -1.57079577    
   4.82962894       1.29409504      -2.00000000       126.088448      -1.57079577    
   4.82962894       1.29409504      -3.00000000       126.088448      -1.57079577    
   4.57987785       1.89704800      -2.00000000       126.120628      -1.57079601    
   4.57987785       1.89704800      -1.00000000       126.120628      -1.57079601    
   4.82962894       1.29409504      -1.00000000       126.120628      -1.57079601    
   4.82962894       1.29409504      -2.00000000       126.120628      -1.57079601    
   4.57987785       1.89704800      -1.00000000       125.704437      -1.57079601    
   4.57987785       1.89704800       0.00000000       125.704437      -1.57079601    
   4.82962894       1.29409504       0.00000000       125.704437      -1.57079601    
   4.82962894       1.29409504      -1.00000000       125.704437      -1.57079601    
   3.53553391       3.53553391      -10.0000000       123.249329       1.57079577    
   3.53553391       3.53553391      -9.00000000       123.249329       1.57079577    
   3.93283010       3.01776695      -9.00000000       123.249329       1.57079577    
   3.93283010       3.01776695      -10.0000000       123.249329       1.57079577    
   3.53553391       3.53553391      -9.00000000       126.042587       1.57079577    
   3.53553391       3.53553391      -8.00000000       126.042587       1.57079577    
   3.93283010       3.01776695      -8.00000000       126.042587       1.57079577    
   3.93283010       3.01776695      -9.00000000       126.042587       1.57079577    
   3.53553391       3.53553391      -8.00000000       126.058144       1.57079554    
   3.53553391       3.53553391      -7.00000000       126.058144       1.57079554    
   3.93283010       3.01776695      -7.00000000       126.058144       1.57079554    
   3.93283010       3.01776695      -8.00000000       126.058144       1.57079554    
   3.53553391       3.53553391      -7.00000000       126.078644       1.57079494    
   3.53553391       3.53553391      -6.00000000       126.078644       1.57079494    
   3.93283010       3.01776695      -6.00000000       126.078644       1.57079494    
   3.93283010       3.01776695      -7.00000000       126.078644       1.57079494    
   3.53553391       3.53553391      -6.00000000       126.030479       1.57079518    
   3.53553391       3.53553391      -5.00000000       126.030479       1.57079518    
   3.93283010       3.01776695      -5.00000000       126.030479       1.57079518    
   3.93283010       3.01776695      -6.00000000       126.030479       1.57079518    
   3.53553391       3.53553391      -5.00000000       126.030663       1.57079518    
   3.53553391       3.53553391      -4.00000000       126.030663       1.57079518    
   3.93283010       3.01776695      -4.00000000       126.030663       1.57079518    
   3.93283010       3.01776695      -5.00000000       126.030663       1.57079518    
   3.53553391       3.53553391      -4.00000000       126.127380       1.57079482    
   3.53553391       3.53553391      -3.00000000       126.127380       1.57079482    
   3.93283010       3.01776695      -3.00000000       126.127380       1.57079482    
   3.93283010       3.01776695      -4.00000000       126.127380       1.57079482    
   3.53553391       3.53553391      -3.00000000       126.087952       1.57079399    
   3.53553391       3.53553391      -2.00000000       126.087952       1.57079399    
   3.93283010       3.01776695      -2.00000000       126.087952       1.57079399    
   3.93283010       3.01776695      -3.00000000       126.087952       1.57079399    
   3.53553391       3.53553391      -2.00000000       126.119514       1.57079339    
   3.53553391       3.53553391      -1.00000000       126.119514       1.57079339    
   3.93283010       3.01776695      -1.00000000       126.119514       1.57079339    
   3.93283010       3.01776695      -2.00000000       126.119514       1.57079339    
   3.53553391       3.53553391      -1.00000000       125.703362       1.57079291    
   3.53553391       3.53553391       0.00000000       125.703362       1.57079291    
   3.93283010       3.01776695       0.00000000       125.703362       1.57079291    
   3.93283010       3.01776695      -1.00000000       125.703362       1.57079291    
   3.93283010       3.01776695      -10.0000000       123.248573      -1.57079637    
   3.93283010       3.01776695      -9.00000000       123.248573      -1.57079637    
   4.33012676       2.50000000      -9.00000000       123.248573      -1.57079637    
   4.33012676       2.50000000      -10.0000000       123.248573      -1.57079637    
   3.93283010       3.01776695      -9.00000000       126.041954      -1.57079637    
   3.93283010       3.01776695      -8.00000000       126.041954      -1.57079637    
   4.33012676       2.50000000      -8.00000000       126.041954      -1.57079637    
   4.33012676       2.50000000      -9.00000000       126.041954      -1.57079637    
   3.93283010       3.01776695      -8.00000000       126.057640      -1.57079625    
   3.93283010       3.01776695      -7.00000000       126.057640      -1.57079625    
   4.33012676       2.50000000      -7.00000000       126.057640      -1.57079625    
   4.33012676       2.50000000      -8.00000000       126.057640      -1.57079625    
   3.93283010       3.01776695      -7.00000000       126.078163      -1.57079637    
   3.93283010       3.01776695      -6.00000000       126.078163      -1.57079637    
   4.33012676       2.50000000      -6.00000000       126.078163      -1.57079637    
   4.33012676       2.50000000      -7.00000000       126.078163      -1.57079637    
   3.93283010       3.01776695      -6.00000000       126.029785      -1.57079637    
   3.93283010       3.01776695      -5.00000000       126.029785      -1.57079637    
   4.33012676       2.50000000      -5.00000000       126.029785      -1.57079637    
   4.33012676       2.50000000      -6.00000000       126.029785      -1.57079637    
   3.93283010       3.01776695      -5.00000000       126.030113      -1.57079589    
   3.93283010       3.01776695      -4.00000000       126.030113      -1.57079589    
   4.33012676       2.50000000      -4.00000000       126.030113      -1.57079589    
   4.33012676       2.50000000      -5.00000000       126.030113      -1.57079589    
   3.93283010       3.01776695      -4.00000000       126.126511      -1.57079542    
   3.93283010       3.01776695      -3.00000000       126.126511      -1.57079542    
   4.33012676       2.50000000      -3.00000000       126.126511      -1.57079542    
   4.33012676       2.50000000      -4.00000000       126.126511      -1.57079542    
   3.93283010       3.01776695      -3.00000000       126.087448      -1.57079506    
   3.93283010       3.01776695      -2.00000000       126.087448      -1.57079506    
   4.33012676       2.50000000      -2.00000000       126.087448      -1.57079506    
   4.33012676       2.50000000      -3.00000000       126.087448      -1.57079506    
   3.93283010       3.01776695      -2.00000000       126.119492      -1.57079589    
   3.93283010       3.01776695      -1.00000000       126.119492      -1.57079589    
   4.33012676       2.50000000      -1.00000000       126.119492      -1.57079589    
   4.33012676       2.50000000      -2.00000000       126.119492      -1.57079589    
   3.93283010       3.01776695      -1.00000000       125.703651      -1.57079542    
   3.93283010       3.01776695       0.00000000       125.703651      -1.57079542    
   4.33012676       2.50000000       0.00000000       125.703651      -1.57079542    
   4.33012676       2.50000000      -1.00000000       125.703651      -1.57079542    
   2.50000000       4.33012676      -10.0000000       123.248451       1.57079589    
   2.50000000       4.33012676      -9.00000000       123.248451       1.57079589    
   3.01776695       3.93283010      -9.00000000       123.248451       1.57079589    
   3.01776695       3.93283010      -10.0000000       123.248451       1.57079589    
   2.50000000       4.33012676      -9.00000000       126.041428       1.57079566    
   2.50000000       4.33012676      -8.00000000       126.041428       1.57079566    
   3.01776695       3.93283010      -8.00000000       126.041428       1.57079566    
   3.01776695       3.93283010      -9.00000000       126.041428       1.57079566    
   2.50000000       4.33012676      -8.00000000       126.057243       1.57079566    
   2.50000000       4.33012676      -7.00000000       126.057243       1.57079566    
   3.01776695       3.93283010      -7.00000000       126.057243       1.57079566    
   3.01776695       3.93283010      -8.00000000       126.057243       1.57079566    
   2.50000000       4.33012676      -7.00000000       126.077744       1.57079518    
   2.50000000       4.33012676      -6.00000000       126.077744       1.57079518    
   3.01776695       3.93283010      -6.00000000       126.077744       1.57079518    
   3.01776695       3.93283010      -7.00000000       126.077744       1.57079518    
   2.50000000       4.33012676      -6.00000000       126.029373       1.57079518    
   2.50000000       4.33012676      -5.00000000       126.029373       1.57079518    
   3.01776695       3.93283010      -5.00000000       126.029373       1.57079518    
   3.01776695       3.93283010      -6.00000000       126.029373       1.57079518    
   2.50000000       4.33012676      -5.00000000       126.029716       1.57079494    
   2.50000000       4.33012676      -4.00000000       126.029716       1.57079494    
   3.01776695       3.93283010      -4.00000000       126.029716       1.57079494    
   3.01776695       3.93283010      -5.00000000       126.029716       1.57079494    
   2.50000000       4.33012676      -4.00000000       126.126785       1.57079458    
   2.50000000       4.33012676      -3.00000000       126.126785       1.57079458    
   3.01776695       3.93283010      -3.00000000       126.126785       1.57079458    
   3.01776695       3.93283010      -4.00000000       126.126785       1.57079458    
   2.50000000       4.33012676      -3.00000000       126.086876       1.57079411    
   2.50000000       4.33012676      -2.00000000       126.086876       1.57079411    
   3.01776695       3.93283010      -2.00000000       126.086876       1.57079411    
   3.01776695       3.93283010      -3.00000000       126.086876       1.57079411    
   2.50000000       4.33012676      -2.00000000       126.118599       1.57079232    
   2.50000000       4.33012676      -1.00000000       126.118599       1.57079232    
   3.01776695       3.93283010      -1.00000000       126.118599       1.57079232    
   3.01776695       3.93283010      -2.00000000       126.118599       1.57079232    
   2.50000000       4.33012676      -1.00000000       125.702332       1.57079172    
   2.50000000       4.33012676       0.00000000       125.702332       1.57079172    
   3.01776695       3.93283010       0.00000000       125.702332       1.57079172    
   3.01776695       3.93283010      -1.00000000       125.702332       1.57079172    
   3.01776695       3.93283010      -10.0000000       123.249695      -1.57079625    
   3.01776695       3.93283010      -9.00000000       123.249695      -1.57079625    
   3.53553391       3.53553391      -9.00000000       123.249695      -1.57079625    
   3.53553391       3.53553391      -10.0000000       123.249695      -1.57079625    
   3.01776695       3.93283010      -9.00000000       126.043091      -1.57079613    
   3.01776695       3.93283010      -8.00000000       126.043091      -1.57079613    
   3.53553391       3.53553391      -8.00000000       126.043091      -1.57079613    
   3.53553391       3.53553391      -9.00000000       126.043091      -1.57079613    
   3.01776695       3.93283010      -8.00000000       126.058952      -1.57079637    
   3.01776695       3.93283010      -7.00000000       126.058952      -1.57079637    
   3.53553391       3.53553391      -7.00000000       126.058952      -1.57079637    
   3.53553391       3.53553391      -8.00000000       126.058952      -1.57079637    
   3.01776695       3.93283010      -7.00000000       126.079140      -1.57079649    
   3.01776695       3.93283010      -6.00000000       126.079140      -1.57079649    
   3.53553391       3.53553391      -6.00000000       126.079140      -1.57079649    
   3.53553391       3.53553391      -7.00000000       126.079140      -1.57079649    
   3.01776695       3.93283010      -6.00000000       126.031166      -1.57079601    
   3.01776695       3.93283010      -5.00000000       126.031166      -1.57079601    
   3.53553391       3.53553391      -5.00000000       126.031166      -1.57079601    
   3.53553391       3.53553391      -6.00000000       126.031166      -1.57079601    
   3.01776695       3.93283010      -5.00000000       126.031166      -1.57079577    
   3.01776695       3.93283010      -4.00000000       126.031166      -1.57079577    
   3.53553391       3.53553391      -4.00000000       126.031166      -1.57079577    
   3.53553391       3.53553391      -5.00000000       126.031166      -1.57079577    
   3.01776695       3.93283010      -4.00000000       126.127380      -1.57079530    
   3.01776695       3.93283010      -3.00000000       126.127380      -1.57079530    
   3.53553391       3.53553391      -3.00000000       126.127380      -1.57079530    
   3.53553391       3.53553391      -4.00000000       126.127380      -1.57079530    
   3.01776695       3.93283010      -3.00000000       126.088562      -1.57079530    
   3.01776695       3.93283010      -2.00000000       126.088562      -1.57079530    
   3.53553391       3.53553391      -2.00000000       126.088562      -1.57079530    
   3.53553391       3.53553391      -3.00000000       126.088562      -1.57079530    
   3.01776695       3.93283010      -2.00000000       126.120697      -1.57079530    
   3.01776695       3.93283010      -1.00000000       126.120697      -1.57079530    
   3.53553391       3.53553391      -1.00000000       126.120697      -1.57079530    
   3.53553391       3.53553391      -2.00000000       126.120697      -1.57079530    
   3.01776695       3.93283010      -1.00000000       125.704697      -1.57079411    
   3.01776695       3.93283010       0.00000000       125.704697      -1.57079411    
   3.53553391       3.53553391       0.00000000       125.704697      -1.57079411    
   3.53553391       3.53553391      -1.00000000       125.704697      -1.57079411    
   1.29409504       4.82962894      -10.0000000       123.249405       1.57079589    
   1.29409504       4.82962894      -9.00000000       123.249405       1.57079589    
   1.89704800       4.57987785      -9.00000000       123.249405       1.57079589    
   1.89704800       4.57987785      -10.0000000       123.249405       1.57079589    
   1.29409504       4.82962894      -9.00000000       126.043030       1.57079601    
   1.29409504       4.82962894      -8.00000000       126.043030       1.57079601    
   1.89704800       4.57987785      -8.00000000       126.043030       1.57079601    
   1.89704800       4.57987785      -9.00000000       126.043030       1.57079601    
   1.29409504       4.82962894      -8.00000000       126.058510       1.57079577    
   1.29409504       4.82962894      -7.00000000       126.058510       1.57079577    
   1.89704800       4.57987785      -7.00000000       126.058510       1.57079577    
   1.89704800       4.57987785      -8.00000000       126.058510       1.57079577    
   1.29409504       4.82962894      -7.00000000       126.079102       1.57079530    
   1.29409504       4.82962894      -6.00000000       126.079102       1.57079530    
   1.89704800       4.57987785      -6.00000000       126.079102       1.57079530    
   1.89704800       4.57987785      -7.00000000       126.079102       1.57079530    
   1.29409504       4.82962894      -6.00000000       126.030876       1.57079554    
   1.29409504       4.82962894      -5.00000000       126.030876       1.57079554    
   1.89704800       4.57987785      -5.00000000       126.030876       1.57079554    
   1.89704800       4.57987785      -6.00000000       126.030876       1.57079554    
   1.29409504       4.82962894      -5.00000000       126.030960       1.57079482    
   1.29409504       4.82962894      -4.00000000       126.030960       1.57079482    
   1.89704800       4.57987785      -4.00000000       126.030960       1.57079482    
   1.89704800       4.57987785      -5.00000000       126.030960       1.57079482    
   1.29409504       4.82962894      -4.00000000       126.127533       1.57079518    
   1.29409504       4.82962894      -3.00000000       126.127533       1.57079518    
   1.89704800       4.57987785      -3.00000000       126.127533       1.57079518    