 VARIABLES="X" "Y" "Z" "abs(p) (Pa)" "angle(p) (rad)"
ZONE N=   1080,E =     600, F=FEPOINT, ET=QUADRILATERAL
   4.82962894       1.29409504      -10.0000000       347.998413       1.61021590    
   4.82962894       1.29409504      -9.00000000       347.998413       1.61021590    
   4.91481400      0.647047520      -9.00000000       347.998413       1.61021590    
   4.91481400      0.647047520      -10.0000000       347.998413       1.61021590    
   4.82962894       1.29409504      -9.00000000       416.255646       1.60766625    
   4.82962894       1.29409504      -8.00000000       416.255646       1.60766625    
   4.91481400      0.647047520      -8.00000000       416.255646       1.60766625    
   4.91481400      0.647047520      -9.00000000       416.255646       1.60766625    
   4.82962894       1.29409504      -8.00000000       607.767090       1.59791148    
   4.82962894       1.29409504      -7.00000000       607.767090       1.59791148    
   4.91481400      0.647047520      -7.00000000       607.767090       1.59791148    
   4.91481400      0.647047520      -8.00000000       607.767090       1.59791148    
   4.82962894       1.29409504      -7.00000000       849.863892       1.59128273    
   4.82962894       1.29409504      -6.00000000       849.863892       1.59128273    
   4.91481400      0.647047520      -6.00000000       849.863892       1.59128273    
   4.91481400      0.647047520      -7.00000000       849.863892       1.59128273    
   4.82962894       1.29409504      -6.00000000       1116.96960       1.58712041    
   4.82962894       1.29409504      -5.00000000       1116.96960       1.58712041    
   4.91481400      0.647047520      -5.00000000       1116.96960       1.58712041    
   4.91481400      0.647047520      -6.00000000       1116.96960       1.58712041    
   4.82962894       1.29409504      -5.00000000       1393.79993       1.58442307    
   4.82962894       1.29409504      -4.00000000       1393.79993       1.58442307    
   4.91481400      0.647047520      -4.00000000       1393.79993       1.58442307    
   4.91481400      0.647047520      -5.00000000       1393.79993       1.58442307    
   4.82962894       1.29409504      -4.00000000       1667.86572       1.58260953    
   4.82962894       1.29409504      -3.00000000       1667.86572       1.58260953    
   4.91481400      0.647047520      -3.00000000       1667.86572       1.58260953    
   4.91481400      0.647047520      -4.00000000       1667.86572       1.58260953    
   4.82962894       1.29409504      -3.00000000       1926.77405       1.58137560    
   4.82962894       1.29409504      -2.00000000       1926.77405       1.58137560    
   4.91481400      0.647047520      -2.00000000       1926.77405       1.58137560    
   4.91481400      0.647047520      -3.00000000       1926.77405       1.58137560    
   4.82962894       1.29409504      -2.00000000       2155.30078       1.58055699    
   4.82962894       1.29409504      -1.00000000       2155.30078       1.58055699    
   4.91481400      0.647047520      -1.00000000       2155.30078       1.58055699    
   4.91481400      0.647047520      -2.00000000       2155.30078       1.58055699    
   4.82962894       1.29409504      -1.00000000       2328.03955       1.58010387    
   4.82962894       1.29409504       0.00000000       2328.03955       1.58010387    
   4.91481400      0.647047520       0.00000000       2328.03955       1.58010387    
   4.91481400      0.647047520      -1.00000000       2328.03955       1.58010387    
   4.91481400      0.647047520      -10.0000000       104.376656       1.61734593    
   4.91481400      0.647047520      -9.00000000       104.376656       1.61734593    
   5.00000000       0.00000000      -9.00000000       104.376656       1.61734593    
   5.00000000       0.00000000      -10.0000000       104.376656       1.61734593    
   4.91481400      0.647047520      -9.00000000       137.321075       1.61048901    
   4.91481400      0.647047520      -8.00000000       137.321075       1.61048901    
   5.00000000       0.00000000      -8.00000000       137.321075       1.61048901    
   5.00000000       0.00000000      -9.00000000       137.321075       1.61048901    
   4.91481400      0.647047520      -8.00000000       216.244873       1.59785652    
   4.91481400      0.647047520      -7.00000000       216.244873       1.59785652    
   5.00000000       0.00000000      -7.00000000       216.244873       1.59785652    
   5.00000000       0.00000000      -8.00000000       216.244873       1.59785652    
   4.91481400      0.647047520      -7.00000000       313.211334       1.59053779    
   4.91481400      0.647047520      -6.00000000       313.211334       1.59053779    
   5.00000000       0.00000000      -6.00000000       313.211334       1.59053779    
   5.00000000       0.00000000      -7.00000000       313.211334       1.59053779    
   4.91481400      0.647047520      -6.00000000       419.183685       1.58623958    
   4.91481400      0.647047520      -5.00000000       419.183685       1.58623958    
   5.00000000       0.00000000      -5.00000000       419.183685       1.58623958    
   5.00000000       0.00000000      -6.00000000       419.183685       1.58623958    
   4.91481400      0.647047520      -5.00000000       528.569153       1.58355653    
   4.91481400      0.647047520      -4.00000000       528.569153       1.58355653    
   5.00000000       0.00000000      -4.00000000       528.569153       1.58355653    
   5.00000000       0.00000000      -5.00000000       528.569153       1.58355653    
   4.91481400      0.647047520      -4.00000000       637.190186       1.58177650    
   4.91481400      0.647047520      -3.00000000       637.190186       1.58177650    
   5.00000000       0.00000000      -3.00000000       637.190186       1.58177650    
   5.00000000       0.00000000      -4.00000000       637.190186       1.58177650    
   4.91481400      0.647047520      -3.00000000       740.241638       1.58057821    
   4.91481400      0.647047520      -2.00000000       740.241638       1.58057821    
   5.00000000       0.00000000      -2.00000000       740.241638       1.58057821    
   5.00000000       0.00000000      -3.00000000       740.241638       1.58057821    
   4.91481400      0.647047520      -2.00000000       832.509277       1.57977247    
   4.91481400      0.647047520      -1.00000000       832.509277       1.57977247    
   5.00000000       0.00000000      -1.00000000       832.509277       1.57977247    
   5.00000000       0.00000000      -2.00000000       832.509277       1.57977247    
   4.91481400      0.647047520      -1.00000000       903.976929       1.57930994    
   4.91481400      0.647047520       0.00000000       903.976929       1.57930994    
   5.00000000       0.00000000       0.00000000       903.976929       1.57930994    
   5.00000000       0.00000000      -1.00000000       903.976929       1.57930994    
   4.33012676       2.50000000      -10.0000000       776.648132       1.61117017    
   4.33012676       2.50000000      -9.00000000       776.648132       1.61117017    
   4.57987785       1.89704800      -9.00000000       776.648132       1.61117017    
   4.57987785       1.89704800      -10.0000000       776.648132       1.61117017    
   4.33012676       2.50000000      -9.00000000       941.461975       1.60808074    
   4.33012676       2.50000000      -8.00000000       941.461975       1.60808074    
   4.57987785       1.89704800      -8.00000000       941.461975       1.60808074    
   4.57987785       1.89704800      -9.00000000       941.461975       1.60808074    
   4.33012676       2.50000000      -8.00000000       1390.36096       1.59790182    
   4.33012676       2.50000000      -7.00000000       1390.36096       1.59790182    
   4.57987785       1.89704800      -7.00000000       1390.36096       1.59790182    
   4.57987785       1.89704800      -8.00000000       1390.36096       1.59790182    
   4.33012676       2.50000000      -7.00000000       1955.02515       1.59116280    
   4.33012676       2.50000000      -6.00000000       1955.02515       1.59116280    
   4.57987785       1.89704800      -6.00000000       1955.02515       1.59116280    
   4.57987785       1.89704800      -7.00000000       1955.02515       1.59116280    
   4.33012676       2.50000000      -6.00000000       2576.99609       1.58697855    
   4.33012676       2.50000000      -5.00000000       2576.99609       1.58697855    
   4.57987785       1.89704800      -5.00000000       2576.99609       1.58697855    
   4.57987785       1.89704800      -6.00000000       2576.99609       1.58697855    
   4.33012676       2.50000000      -5.00000000       3221.18286       1.58427989    
   4.33012676       2.50000000      -4.00000000       3221.18286       1.58427989    
   4.57987785       1.89704800      -4.00000000       3221.18286       1.58427989    
   4.57987785       1.89704800      -5.00000000       3221.18286       1.58427989    
   4.33012676       2.50000000      -4.00000000       3859.25977       1.58247328    
   4.33012676       2.50000000      -3.00000000       3859.25977       1.58247328    
   4.57987785       1.89704800      -3.00000000       3859.25977       1.58247328    
   4.57987785       1.89704800      -4.00000000       3859.25977       1.58247328    
   4.33012676       2.50000000      -3.00000000       4462.49316       1.58124328    
   4.33012676       2.50000000      -2.00000000       4462.49316       1.58124328    
   4.57987785       1.89704800      -2.00000000       4462.49316       1.58124328    
   4.57987785       1.89704800      -3.00000000       4462.49316       1.58124328    
   4.33012676       2.50000000      -2.00000000       4996.24170       1.58042705    
   4.33012676       2.50000000      -1.00000000       4996.24170       1.58042705    
   4.57987785       1.89704800      -1.00000000       4996.24170       1.58042705    
   4.57987785       1.89704800      -2.00000000       4996.24170       1.58042705    
   4.33012676       2.50000000      -1.00000000       5401.40918       1.57997262    
   4.33012676       2.50000000       0.00000000       5401.40918       1.57997262    
   4.57987785       1.89704800       0.00000000       5401.40918       1.57997262    
   4.57987785       1.89704800      -1.00000000       5401.40918       1.57997262    
   4.57987785       1.89704800      -10.0000000       549.629883       1.61282814    
   4.57987785       1.89704800      -9.00000000       549.629883       1.61282814    
   4.82962894       1.29409504      -9.00000000       549.629883       1.61282814    
   4.82962894       1.29409504      -10.0000000       549.629883       1.61282814    
   4.57987785       1.89704800      -9.00000000       681.538391       1.60876358    
   4.57987785       1.89704800      -8.00000000       681.538391       1.60876358    
   4.82962894       1.29409504      -8.00000000       681.538391       1.60876358    
   4.82962894       1.29409504      -9.00000000       681.538391       1.60876358    
   4.57987785       1.89704800      -8.00000000       1025.51721       1.59788871    
   4.57987785       1.89704800      -7.00000000       1025.51721       1.59788871    
   4.82962894       1.29409504      -7.00000000       1025.51721       1.59788871    
   4.82962894       1.29409504      -8.00000000       1025.51721       1.59788871    
   4.57987785       1.89704800      -7.00000000       1454.93738       1.59097385    
   4.57987785       1.89704800      -6.00000000       1454.93738       1.59097385    
   4.82962894       1.29409504      -6.00000000       1454.93738       1.59097385    
   4.82962894       1.29409504      -7.00000000       1454.93738       1.59097385    
   4.57987785       1.89704800      -6.00000000       1926.75793       1.58675456    
   4.57987785       1.89704800      -5.00000000       1926.75793       1.58675456    
   4.82962894       1.29409504      -5.00000000       1926.75793       1.58675456    
   4.82962894       1.29409504      -6.00000000       1926.75793       1.58675456    
   4.57987785       1.89704800      -5.00000000       2414.91138       1.58405626    
   4.57987785       1.89704800      -4.00000000       2414.91138       1.58405626    
   4.82962894       1.29409504      -4.00000000       2414.91138       1.58405626    
   4.82962894       1.29409504      -5.00000000       2414.91138       1.58405626    
   4.57987785       1.89704800      -4.00000000       2898.81958       1.58225799    
   4.57987785       1.89704800      -3.00000000       2898.81958       1.58225799    
   4.82962894       1.29409504      -3.00000000       2898.81958       1.58225799    
   4.82962894       1.29409504      -4.00000000       2898.81958       1.58225799    
   4.57987785       1.89704800      -3.00000000       3356.82031       1.58103585    
   4.57987785       1.89704800      -2.00000000       3356.82031       1.58103585    
   4.82962894       1.29409504      -2.00000000       3356.82031       1.58103585    
   4.82962894       1.29409504      -3.00000000       3356.82031       1.58103585    
   4.57987785       1.89704800      -2.00000000       3763.59131       1.58022249    
   4.57987785       1.89704800      -1.00000000       3763.59131       1.58022249    
   4.82962894       1.29409504      -1.00000000       3763.59131       1.58022249    
   4.82962894       1.29409504      -2.00000000       3763.59131       1.58022249    
   4.57987785       1.89704800      -1.00000000       4074.39551       1.57976484    
   4.57987785       1.89704800       0.00000000       4074.39551       1.57976484    
   4.82962894       1.29409504       0.00000000       4074.39551       1.57976484    
   4.82962894       1.29409504      -1.00000000       4074.39551       1.57976484    
   3.53553391       3.53553391      -10.0000000       1152.37341       1.61146176    
   3.53553391       3.53553391      -9.00000000       1152.37341       1.61146176    
   3.93283010       3.01776695      -9.00000000       1152.37341       1.61146176    
   3.93283010       3.01776695      -10.0000000       1152.37341       1.61146176    
   3.53553391       3.53553391      -9.00000000       1402.51208       1.60820234    
   3.53553391       3.53553391      -8.00000000       1402.51208       1.60820234    
   3.93283010       3.01776695      -8.00000000       1402.51208       1.60820234    
   3.93283010       3.01776695      -9.00000000       1402.51208       1.60820234    
   3.53553391       3.53553391      -8.00000000       2078.20386       1.59790039    
   3.53553391       3.53553391      -7.00000000       2078.20386       1.59790039    
   3.93283010       3.01776695      -7.00000000       2078.20386       1.59790039    
   3.93283010       3.01776695      -8.00000000       2078.20386       1.59790039    
   3.53553391       3.53553391      -7.00000000       2926.95923       1.59112895    
   3.53553391       3.53553391      -6.00000000       2926.95923       1.59112895    
   3.93283010       3.01776695      -6.00000000       2926.95923       1.59112895    
   3.93283010       3.01776695      -7.00000000       2926.95923       1.59112895    
   3.53553391       3.53553391      -6.00000000       3861.41504       1.58693755    
   3.53553391       3.53553391      -5.00000000       3861.41504       1.58693755    
   3.93283010       3.01776695      -5.00000000       3861.41504       1.58693755    
   3.93283010       3.01776695      -6.00000000       3861.41504       1.58693755    
   3.53553391       3.53553391      -5.00000000       4829.04736       1.58423948    
   3.53553391       3.53553391      -4.00000000       4829.04736       1.58423948    
   3.93283010       3.01776695      -4.00000000       4829.04736       1.58423948    
   3.93283010       3.01776695      -5.00000000       4829.04736       1.58423948    
   3.53553391       3.53553391      -4.00000000       5787.65137       1.58243358    
   3.53553391       3.53553391      -3.00000000       5787.65137       1.58243358    
   3.93283010       3.01776695      -3.00000000       5787.65137       1.58243358    
   3.93283010       3.01776695      -4.00000000       5787.65137       1.58243358    
   3.53553391       3.53553391      -3.00000000       6694.08740       1.58120477    
   3.53553391       3.53553391      -2.00000000       6694.08740       1.58120477    
   3.93283010       3.01776695      -2.00000000       6694.08740       1.58120477    
   3.93283010       3.01776695      -3.00000000       6694.08740       1.58120477    
   3.53553391       3.53553391      -2.00000000       7496.68994       1.58038914    
   3.53553391       3.53553391      -1.00000000       7496.68994       1.58038914    
   3.93283010       3.01776695      -1.00000000       7496.68994       1.58038914    
   3.93283010       3.01776695      -2.00000000       7496.68994       1.58038914    
   3.53553391       3.53553391      -1.00000000       8106.68213       1.57993424    
   3.53553391       3.53553391       0.00000000       8106.68213       1.57993424    
   3.93283010       3.01776695       0.00000000       8106.68213       1.57993424    
   3.93283010       3.01776695      -1.00000000       8106.68213       1.57993424    
   3.93283010       3.01776695      -10.0000000       957.430786       1.61233485    
   3.93283010       3.01776695      -9.00000000       957.430786       1.61233485    
   4.33012676       2.50000000      -9.00000000       957.430786       1.61233485    
   4.33012676       2.50000000      -10.0000000       957.430786       1.61233485    
   3.93283010       3.01776695      -9.00000000       1179.30688       1.60856187    
   3.93283010       3.01776695      -8.00000000       1179.30688       1.60856187    
   4.33012676       2.50000000      -8.00000000       1179.30688       1.60856187    
   4.33012676       2.50000000      -9.00000000       1179.30688       1.60856187    
   3.93283010       3.01776695      -8.00000000       1764.90686       1.59789371    
   3.93283010       3.01776695      -7.00000000       1764.90686       1.59789371    
   4.33012676       2.50000000      -7.00000000       1764.90686       1.59789371    
   4.33012676       2.50000000      -8.00000000       1764.90686       1.59789371    
   3.93283010       3.01776695      -7.00000000       2497.52271       1.59102821    
   3.93283010       3.01776695      -6.00000000       2497.52271       1.59102821    
   4.33012676       2.50000000      -6.00000000       2497.52271       1.59102821    
   4.33012676       2.50000000      -7.00000000       2497.52271       1.59102821    
   3.93283010       3.01776695      -6.00000000       3303.04175       1.58681858    
   3.93283010       3.01776695      -5.00000000       3303.04175       1.58681858    
   4.33012676       2.50000000      -5.00000000       3303.04175       1.58681858    
   4.33012676       2.50000000      -6.00000000       3303.04175       1.58681858    
   3.93283010       3.01776695      -5.00000000       4136.68115       1.58412015    
   3.93283010       3.01776695      -4.00000000       4136.68115       1.58412015    
   4.33012676       2.50000000      -4.00000000       4136.68115       1.58412015    
   4.33012676       2.50000000      -5.00000000       4136.68115       1.58412015    
   3.93283010       3.01776695      -4.00000000       4962.90283       1.58231878    
   3.93283010       3.01776695      -3.00000000       4962.90283       1.58231878    
   4.33012676       2.50000000      -3.00000000       4962.90283       1.58231878    
   4.33012676       2.50000000      -4.00000000       4962.90283       1.58231878    
   3.93283010       3.01776695      -3.00000000       5744.62109       1.58109415    
   3.93283010       3.01776695      -2.00000000       5744.62109       1.58109415    
   4.33012676       2.50000000      -2.00000000       5744.62109       1.58109415    
   4.33012676       2.50000000      -3.00000000       5744.62109       1.58109415    
   3.93283010       3.01776695      -2.00000000       6438.20020       1.58028030    
   3.93283010       3.01776695      -1.00000000       6438.20020       1.58028030    
   4.33012676       2.50000000      -1.00000000       6438.20020       1.58028030    
   4.33012676       2.50000000      -2.00000000       6438.20020       1.58028030    
   3.93283010       3.01776695      -1.00000000       6967.14941       1.57982349    
   3.93283010       3.01776695       0.00000000       6967.14941       1.57982349    
   4.33012676       2.50000000       0.00000000       6967.14941       1.57982349    
   4.33012676       2.50000000      -1.00000000       6967.14941       1.57982349    
   2.50000000       4.33012676      -10.0000000       1449.56995       1.61161613    
   2.50000000       4.33012676      -9.00000000       1449.56995       1.61161613    
   3.01776695       3.93283010      -9.00000000       1449.56995       1.61161613    
   3.01776695       3.93283010      -10.0000000       1449.56995       1.61161613    
   2.50000000       4.33012676      -9.00000000       1767.98157       1.60826719    
   2.50000000       4.33012676      -8.00000000       1767.98157       1.60826719    
   3.01776695       3.93283010      -8.00000000       1767.98157       1.60826719    
   3.01776695       3.93283010      -9.00000000       1767.98157       1.60826719    
   2.50000000       4.33012676      -8.00000000       2624.41943       1.59789872    
   2.50000000       4.33012676      -7.00000000       2624.41943       1.59789872    
   3.01776695       3.93283010      -7.00000000       2624.41943       1.59789872    
   3.01776695       3.93283010      -8.00000000       2624.41943       1.59789872    
   2.50000000       4.33012676      -7.00000000       3699.41650       1.59111106    
   2.50000000       4.33012676      -6.00000000       3699.41650       1.59111106    
   3.01776695       3.93283010      -6.00000000       3699.41650       1.59111106    
   3.01776695       3.93283010      -7.00000000       3699.41650       1.59111106    
   2.50000000       4.33012676      -6.00000000       4882.67041       1.58691609    
   2.50000000       4.33012676      -5.00000000       4882.67041       1.58691609    
   3.01776695       3.93283010      -5.00000000       4882.67041       1.58691609    
   3.01776695       3.93283010      -6.00000000       4882.67041       1.58691609    
   2.50000000       4.33012676      -5.00000000       6107.82031       1.58421779    
   2.50000000       4.33012676      -4.00000000       6107.82031       1.58421779    
   3.01776695       3.93283010      -4.00000000       6107.82031       1.58421779    
   3.01776695       3.93283010      -5.00000000       6107.82031       1.58421779    
   2.50000000       4.33012676      -4.00000000       7321.62061       1.58241320    
   2.50000000       4.33012676      -3.00000000       7321.62061       1.58241320    
   3.01776695       3.93283010      -3.00000000       7321.62061       1.58241320    
   3.01776695       3.93283010      -4.00000000       7321.62061       1.58241320    
   2.50000000       4.33012676      -3.00000000       8469.50000       1.58118463    
   2.50000000       4.33012676      -2.00000000       8469.50000       1.58118463    
   3.01776695       3.93283010      -2.00000000       8469.50000       1.58118463    
   3.01776695       3.93283010      -3.00000000       8469.50000       1.58118463    
   2.50000000       4.33012676      -2.00000000       9486.26367       1.58036971    
   2.50000000       4.33012676      -1.00000000       9486.26367       1.58036971    
   3.01776695       3.93283010      -1.00000000       9486.26367       1.58036971    
   3.01776695       3.93283010      -2.00000000       9486.26367       1.58036971    
   2.50000000       4.33012676      -1.00000000       10259.5049       1.57991385    
   2.50000000       4.33012676       0.00000000       10259.5049       1.57991385    
   3.01776695       3.93283010       0.00000000       10259.5049       1.57991385    
   3.01776695       3.93283010      -1.00000000       10259.5049       1.57991385    
   3.01776695       3.93283010      -10.0000000       1299.98206       1.61213064    
   3.01776695       3.93283010      -9.00000000       1299.98206       1.61213064    
   3.53553391       3.53553391      -9.00000000       1299.98206       1.61213064    
   3.53553391       3.53553391      -10.0000000       1299.98206       1.61213064    
   3.01776695       3.93283010      -9.00000000       1596.71460       1.60848010    
   3.01776695       3.93283010      -8.00000000       1596.71460       1.60848010    
   3.53553391       3.53553391      -8.00000000       1596.71460       1.60848010    
   3.53553391       3.53553391      -9.00000000       1596.71460       1.60848010    
   3.01776695       3.93283010      -8.00000000       2384.01929       1.59789526    
   3.01776695       3.93283010      -7.00000000       2384.01929       1.59789526    
   3.53553391       3.53553391      -7.00000000       2384.01929       1.59789526    
   3.53553391       3.53553391      -8.00000000       2384.01929       1.59789526    
   3.01776695       3.93283010      -7.00000000       3369.90137       1.59105217    
   3.01776695       3.93283010      -6.00000000       3369.90137       1.59105217    
   3.53553391       3.53553391      -6.00000000       3369.90137       1.59105217    
   3.53553391       3.53553391      -7.00000000       3369.90137       1.59105217    
   3.01776695       3.93283010      -6.00000000       4454.22119       1.58684611    
   3.01776695       3.93283010      -5.00000000       4454.22119       1.58684611    
   3.53553391       3.53553391      -5.00000000       4454.22119       1.58684611    
   3.53553391       3.53553391      -6.00000000       4454.22119       1.58684611    
   3.01776695       3.93283010      -5.00000000       5576.54590       1.58414817    
   3.01776695       3.93283010      -4.00000000       5576.54590       1.58414817    
   3.53553391       3.53553391      -4.00000000       5576.54590       1.58414817    
   3.53553391       3.53553391      -5.00000000       5576.54590       1.58414817    
   3.01776695       3.93283010      -4.00000000       6688.77832       1.58234537    
   3.01776695       3.93283010      -3.00000000       6688.77832       1.58234537    
   3.53553391       3.53553391      -3.00000000       6688.77832       1.58234537    
   3.53553391       3.53553391      -4.00000000       6688.77832       1.58234537    
   3.01776695       3.93283010      -3.00000000       7740.94385       1.58111989    
   3.01776695       3.93283010      -2.00000000       7740.94385       1.58111989    
   3.53553391       3.53553391      -2.00000000       7740.94385       1.58111989    
   3.53553391       3.53553391      -3.00000000       7740.94385       1.58111989    
   3.01776695       3.93283010      -2.00000000       8674.04004       1.58030558    
   3.01776695       3.93283010      -1.00000000       8674.04004       1.58030558    
   3.53553391       3.53553391      -1.00000000       8674.04004       1.58030558    
   3.53553391       3.53553391      -2.00000000       8674.04004       1.58030558    
   3.01776695       3.93283010      -1.00000000       9385.09570       1.57984912    
   3.01776695       3.93283010       0.00000000       9385.09570       1.57984912    
   3.53553391       3.53553391       0.00000000       9385.09570       1.57984912    
   3.53553391       3.53553391      -1.00000000       9385.09570       1.57984912    
   1.29409504       4.82962894      -10.0000000       1647.97620       1.61172545    
   1.29409504       4.82962894      -9.00000000       1647.97620       1.61172545    
   1.89704800       4.57987785      -9.00000000       1647.97620       1.61172545    
   1.89704800       4.57987785      -10.0000000       1647.97620       1.61172545    
   1.29409504       4.82962894      -9.00000000       2012.96643       1.60831273    
   1.29409504       4.82962894      -8.00000000       2012.96643       1.60831273    
   1.89704800       4.57987785      -8.00000000       2012.96643       1.60831273    
   1.89704800       4.57987785      -9.00000000       2012.96643       1.60831273    
   1.29409504       4.82962894      -8.00000000       2991.78125       1.59789836    
   1.29409504       4.82962894      -7.00000000       2991.78125       1.59789836    
   1.89704800       4.57987785      -7.00000000       2991.78125       1.59789836    
   1.89704800       4.57987785      -8.00000000       2991.78125       1.59789836    
   1.29409504       4.82962894      -7.00000000       4219.77393       1.59109855    
   1.29409504       4.82962894      -6.00000000       4219.77393       1.59109855    
   1.89704800       4.57987785      -6.00000000       4219.77393       1.59109855    
   1.89704800       4.57987785      -7.00000000       4219.77393       1.59109855    
   1.29409504       4.82962894      -6.00000000       5571.18994       1.58690143    
   1.29409504       4.82962894      -5.00000000       5571.18994       1.58690143    
   1.89704800       4.57987785      -5.00000000       5571.18994       1.58690143    
   1.89704800       4.57987785      -6.00000000       5571.18994       1.58690143    
   1.29409504       4.82962894      -5.00000000       6970.35547       1.58420289    
   1.29409504       4.82962894      -4.00000000       6970.35547       1.58420289    
   1.89704800       4.57987785      -4.00000000       6970.35547       1.58420289    
   1.89704800       4.57987785      -5.00000000       6970.35547       1.58420289    
   1.29409504       4.82962894      -4.00000000       8356.64551       1.58239806    
   1.29409504       4.82962894      -3.00000000       8356.64551       1.58239806    
   1.89704800       4.57987785      -3.00000000       8356.64551       1.58239806    