 VARIABLES="X" "Y" "Z" "abs(p) (Pa)" "angle(p) (rad)"
ZONE N=   1080,E =     600, F=FEPOINT, ET=QUADRILATERAL
   4.82962894       1.29409504      -10.0000000       1359.72864       2.67691970    
   4.82962894       1.29409504      -9.00000000       1359.72864       2.67691970    
   4.91481400      0.647047520      -9.00000000       1359.72864       2.67691970    
   4.91481400      0.647047520      -10.0000000       1359.72864       2.67691970    
   4.82962894       1.29409504      -9.00000000       1675.74805       2.52687621    
   4.82962894       1.29409504      -8.00000000       1675.74805       2.52687621    
   4.91481400      0.647047520      -8.00000000       1675.74805       2.52687621    
   4.91481400      0.647047520      -9.00000000       1675.74805       2.52687621    
   4.82962894       1.29409504      -8.00000000       1970.36462       2.46571112    
   4.82962894       1.29409504      -7.00000000       1970.36462       2.46571112    
   4.91481400      0.647047520      -7.00000000       1970.36462       2.46571112    
   4.91481400      0.647047520      -8.00000000       1970.36462       2.46571112    
   4.82962894       1.29409504      -7.00000000       2267.15967       2.43224955    
   4.82962894       1.29409504      -6.00000000       2267.15967       2.43224955    
   4.91481400      0.647047520      -6.00000000       2267.15967       2.43224955    
   4.91481400      0.647047520      -7.00000000       2267.15967       2.43224955    
   4.82962894       1.29409504      -6.00000000       2577.60620       2.41204762    
   4.82962894       1.29409504      -5.00000000       2577.60620       2.41204762    
   4.91481400      0.647047520      -5.00000000       2577.60620       2.41204762    
   4.91481400      0.647047520      -6.00000000       2577.60620       2.41204762    
   4.82962894       1.29409504      -5.00000000       2909.50928       2.39930892    
   4.82962894       1.29409504      -4.00000000       2909.50928       2.39930892    
   4.91481400      0.647047520      -4.00000000       2909.50928       2.39930892    
   4.91481400      0.647047520      -5.00000000       2909.50928       2.39930892    
   4.82962894       1.29409504      -4.00000000       3268.36279       2.39136171    
   4.82962894       1.29409504      -3.00000000       3268.36279       2.39136171    
   4.91481400      0.647047520      -3.00000000       3268.36279       2.39136171    
   4.91481400      0.647047520      -4.00000000       3268.36279       2.39136171    
   4.82962894       1.29409504      -3.00000000       3658.93579       2.38650560    
   4.82962894       1.29409504      -2.00000000       3658.93579       2.38650560    
   4.91481400      0.647047520      -2.00000000       3658.93579       2.38650560    
   4.91481400      0.647047520      -3.00000000       3658.93579       2.38650560    
   4.82962894       1.29409504      -2.00000000       4086.16040       2.38387084    
   4.82962894       1.29409504      -1.00000000       4086.16040       2.38387084    
   4.91481400      0.647047520      -1.00000000       4086.16040       2.38387084    
   4.91481400      0.647047520      -2.00000000       4086.16040       2.38387084    
   4.82962894       1.29409504      -1.00000000       4551.45898       2.38316298    
   4.82962894       1.29409504       0.00000000       4551.45898       2.38316298    
   4.91481400      0.647047520       0.00000000       4551.45898       2.38316298    
   4.91481400      0.647047520      -1.00000000       4551.45898       2.38316298    
   4.91481400      0.647047520      -10.0000000       1384.05066       2.67294455    
   4.91481400      0.647047520      -9.00000000       1384.05066       2.67294455    
   5.00000000       0.00000000      -9.00000000       1384.05066       2.67294455    
   5.00000000       0.00000000      -10.0000000       1384.05066       2.67294455    
   4.91481400      0.647047520      -9.00000000       1709.26172       2.52499127    
   4.91481400      0.647047520      -8.00000000       1709.26172       2.52499127    
   5.00000000       0.00000000      -8.00000000       1709.26172       2.52499127    
   5.00000000       0.00000000      -9.00000000       1709.26172       2.52499127    
   4.91481400      0.647047520      -8.00000000       2010.95605       2.46472454    
   4.91481400      0.647047520      -7.00000000       2010.95605       2.46472454    
   5.00000000       0.00000000      -7.00000000       2010.95605       2.46472454    
   5.00000000       0.00000000      -8.00000000       2010.95605       2.46472454    
   4.91481400      0.647047520      -7.00000000       2314.43115       2.43173504    
   4.91481400      0.647047520      -6.00000000       2314.43115       2.43173504    
   5.00000000       0.00000000      -6.00000000       2314.43115       2.43173504    
   5.00000000       0.00000000      -7.00000000       2314.43115       2.43173504    
   4.91481400      0.647047520      -6.00000000       2631.66504       2.41180158    
   4.91481400      0.647047520      -5.00000000       2631.66504       2.41180158    
   5.00000000       0.00000000      -5.00000000       2631.66504       2.41180158    
   5.00000000       0.00000000      -6.00000000       2631.66504       2.41180158    
   4.91481400      0.647047520      -5.00000000       2970.71875       2.39922476    
   4.91481400      0.647047520      -4.00000000       2970.71875       2.39922476    
   5.00000000       0.00000000      -4.00000000       2970.71875       2.39922476    
   5.00000000       0.00000000      -5.00000000       2970.71875       2.39922476    
   4.91481400      0.647047520      -4.00000000       3337.22949       2.39137149    
   4.91481400      0.647047520      -3.00000000       3337.22949       2.39137149    
   5.00000000       0.00000000      -3.00000000       3337.22949       2.39137149    
   5.00000000       0.00000000      -4.00000000       3337.22949       2.39137149    
   4.91481400      0.647047520      -3.00000000       3736.10840       2.38656950    
   4.91481400      0.647047520      -2.00000000       3736.10840       2.38656950    
   5.00000000       0.00000000      -2.00000000       3736.10840       2.38656950    
   5.00000000       0.00000000      -3.00000000       3736.10840       2.38656950    
   4.91481400      0.647047520      -2.00000000       4172.38770       2.38396096    
   4.91481400      0.647047520      -1.00000000       4172.38770       2.38396096    
   5.00000000       0.00000000      -1.00000000       4172.38770       2.38396096    
   5.00000000       0.00000000      -2.00000000       4172.38770       2.38396096    
   4.91481400      0.647047520      -1.00000000       4647.59375       2.38324475    
   4.91481400      0.647047520       0.00000000       4647.59375       2.38324475    
   5.00000000       0.00000000       0.00000000       4647.59375       2.38324475    
   5.00000000       0.00000000      -1.00000000       4647.59375       2.38324475    
   4.33012676       2.50000000      -10.0000000       1233.12439       2.70438027    
   4.33012676       2.50000000      -9.00000000       1233.12439       2.70438027    
   4.57987785       1.89704800      -9.00000000       1233.12439       2.70438027    
   4.57987785       1.89704800      -10.0000000       1233.12439       2.70438027    
   4.33012676       2.50000000      -9.00000000       1500.37292       2.54237652    
   4.33012676       2.50000000      -8.00000000       1500.37292       2.54237652    
   4.57987785       1.89704800      -8.00000000       1500.37292       2.54237652    
   4.57987785       1.89704800      -9.00000000       1500.37292       2.54237652    
   4.33012676       2.50000000      -8.00000000       1757.92346       2.47582006    
   4.33012676       2.50000000      -7.00000000       1757.92346       2.47582006    
   4.57987785       1.89704800      -7.00000000       1757.92346       2.47582006    
   4.57987785       1.89704800      -8.00000000       1757.92346       2.47582006    
   4.33012676       2.50000000      -7.00000000       2019.77673       2.43948412    
   4.33012676       2.50000000      -6.00000000       2019.77673       2.43948412    
   4.57987785       1.89704800      -6.00000000       2019.77673       2.43948412    
   4.57987785       1.89704800      -7.00000000       2019.77673       2.43948412    
   4.33012676       2.50000000      -6.00000000       2294.73096       2.41762328    
   4.33012676       2.50000000      -5.00000000       2294.73096       2.41762328    
   4.57987785       1.89704800      -5.00000000       2294.73096       2.41762328    
   4.57987785       1.89704800      -6.00000000       2294.73096       2.41762328    
   4.33012676       2.50000000      -5.00000000       2589.24731       2.40388298    
   4.33012676       2.50000000      -4.00000000       2589.24731       2.40388298    
   4.57987785       1.89704800      -4.00000000       2589.24731       2.40388298    
   4.57987785       1.89704800      -5.00000000       2589.24731       2.40388298    
   4.33012676       2.50000000      -4.00000000       2908.02100       2.39534020    
   4.33012676       2.50000000      -3.00000000       2908.02100       2.39534020    
   4.57987785       1.89704800      -3.00000000       2908.02100       2.39534020    
   4.57987785       1.89704800      -4.00000000       2908.02100       2.39534020    
   4.33012676       2.50000000      -3.00000000       3255.13647       2.39014196    
   4.33012676       2.50000000      -2.00000000       3255.13647       2.39014196    
   4.57987785       1.89704800      -2.00000000       3255.13647       2.39014196    
   4.57987785       1.89704800      -3.00000000       3255.13647       2.39014196    
   4.33012676       2.50000000      -2.00000000       3634.97070       2.38734198    
   4.33012676       2.50000000      -1.00000000       3634.97070       2.38734198    
   4.57987785       1.89704800      -1.00000000       3634.97070       2.38734198    
   4.57987785       1.89704800      -2.00000000       3634.97070       2.38734198    
   4.33012676       2.50000000      -1.00000000       4048.71045       2.38666224    
   4.33012676       2.50000000       0.00000000       4048.71045       2.38666224    
   4.57987785       1.89704800       0.00000000       4048.71045       2.38666224    
   4.57987785       1.89704800      -1.00000000       4048.71045       2.38666224    
   4.57987785       1.89704800      -10.0000000       1302.83252       2.68908215    
   4.57987785       1.89704800      -9.00000000       1302.83252       2.68908215    
   4.82962894       1.29409504      -9.00000000       1302.83252       2.68908215    
   4.82962894       1.29409504      -10.0000000       1302.83252       2.68908215    
   4.57987785       1.89704800      -9.00000000       1597.18286       2.53372097    
   4.57987785       1.89704800      -8.00000000       1597.18286       2.53372097    
   4.82962894       1.29409504      -8.00000000       1597.18286       2.53372097    
   4.82962894       1.29409504      -9.00000000       1597.18286       2.53372097    
   4.57987785       1.89704800      -8.00000000       1875.47559       2.47017956    
   4.57987785       1.89704800      -7.00000000       1875.47559       2.47017956    
   4.82962894       1.29409504      -7.00000000       1875.47559       2.47017956    
   4.82962894       1.29409504      -8.00000000       1875.47559       2.47017956    
   4.57987785       1.89704800      -7.00000000       2156.83325       2.43546247    
   4.57987785       1.89704800      -6.00000000       2156.83325       2.43546247    
   4.82962894       1.29409504      -6.00000000       2156.83325       2.43546247    
   4.82962894       1.29409504      -7.00000000       2156.83325       2.43546247    
   4.57987785       1.89704800      -6.00000000       2451.57300       2.41453528    
   4.57987785       1.89704800      -5.00000000       2451.57300       2.41453528    
   4.82962894       1.29409504      -5.00000000       2451.57300       2.41453528    
   4.82962894       1.29409504      -6.00000000       2451.57300       2.41453528    
   4.57987785       1.89704800      -5.00000000       2766.89819       2.40136123    
   4.57987785       1.89704800      -4.00000000       2766.89819       2.40136123    
   4.82962894       1.29409504      -4.00000000       2766.89819       2.40136123    
   4.82962894       1.29409504      -5.00000000       2766.89819       2.40136123    
   4.57987785       1.89704800      -4.00000000       3107.94775       2.39315367    
   4.57987785       1.89704800      -3.00000000       3107.94775       2.39315367    
   4.82962894       1.29409504      -3.00000000       3107.94775       2.39315367    
   4.82962894       1.29409504      -4.00000000       3107.94775       2.39315367    
   4.57987785       1.89704800      -3.00000000       3479.21704       2.38814783    
   4.57987785       1.89704800      -2.00000000       3479.21704       2.38814783    
   4.82962894       1.29409504      -2.00000000       3479.21704       2.38814783    
   4.82962894       1.29409504      -3.00000000       3479.21704       2.38814783    
   4.57987785       1.89704800      -2.00000000       3885.36499       2.38544035    
   4.57987785       1.89704800      -1.00000000       3885.36499       2.38544035    
   4.82962894       1.29409504      -1.00000000       3885.36499       2.38544035    
   4.82962894       1.29409504      -2.00000000       3885.36499       2.38544035    
   4.57987785       1.89704800      -1.00000000       4327.86572       2.38473725    
   4.57987785       1.89704800       0.00000000       4327.86572       2.38473725    
   4.82962894       1.29409504       0.00000000       4327.86572       2.38473725    
   4.82962894       1.29409504      -1.00000000       4327.86572       2.38473725    
   3.53553391       3.53553391      -10.0000000       1023.24829       2.77782774    
   3.53553391       3.53553391      -9.00000000       1023.24829       2.77782774    
   3.93283010       3.01776695      -9.00000000       1023.24829       2.77782774    
   3.93283010       3.01776695      -10.0000000       1023.24829       2.77782774    
   3.53553391       3.53553391      -9.00000000       1204.36133       2.59271407    
   3.53553391       3.53553391      -8.00000000       1204.36133       2.59271407    
   3.93283010       3.01776695      -8.00000000       1204.36133       2.59271407    
   3.93283010       3.01776695      -9.00000000       1204.36133       2.59271407    
   3.53553391       3.53553391      -8.00000000       1397.25195       2.51426864    
   3.53553391       3.53553391      -7.00000000       1397.25195       2.51426864    
   3.93283010       3.01776695      -7.00000000       1397.25195       2.51426864    
   3.93283010       3.01776695      -8.00000000       1397.25195       2.51426864    
   3.53553391       3.53553391      -7.00000000       1598.61670       2.47129607    
   3.53553391       3.53553391      -6.00000000       1598.61670       2.47129607    
   3.93283010       3.01776695      -6.00000000       1598.61670       2.47129607    
   3.93283010       3.01776695      -7.00000000       1598.61670       2.47129607    
   3.53553391       3.53553391      -6.00000000       1812.40967       2.44550800    
   3.53553391       3.53553391      -5.00000000       1812.40967       2.44550800    
   3.93283010       3.01776695      -5.00000000       1812.40967       2.44550800    
   3.93283010       3.01776695      -6.00000000       1812.40967       2.44550800    
   3.53553391       3.53553391      -5.00000000       2042.68250       2.42935872    
   3.53553391       3.53553391      -4.00000000       2042.68250       2.42935872    
   3.93283010       3.01776695      -4.00000000       2042.68250       2.42935872    
   3.93283010       3.01776695      -5.00000000       2042.68250       2.42935872    
   3.53553391       3.53553391      -4.00000000       2292.70679       2.41936636    
   3.53553391       3.53553391      -3.00000000       2292.70679       2.41936636    
   3.93283010       3.01776695      -3.00000000       2292.70679       2.41936636    
   3.93283010       3.01776695      -4.00000000       2292.70679       2.41936636    
   3.53553391       3.53553391      -3.00000000       2565.40259       2.41332650    
   3.53553391       3.53553391      -2.00000000       2565.40259       2.41332650    
   3.93283010       3.01776695      -2.00000000       2565.40259       2.41332650    
   3.93283010       3.01776695      -3.00000000       2565.40259       2.41332650    
   3.53553391       3.53553391      -2.00000000       2864.14355       2.41011357    
   3.53553391       3.53553391      -1.00000000       2864.14355       2.41011357    
   3.93283010       3.01776695      -1.00000000       2864.14355       2.41011357    
   3.93283010       3.01776695      -2.00000000       2864.14355       2.41011357    
   3.53553391       3.53553391      -1.00000000       3189.82935       2.40948343    
   3.53553391       3.53553391       0.00000000       3189.82935       2.40948343    
   3.93283010       3.01776695       0.00000000       3189.82935       2.40948343    
   3.93283010       3.01776695      -1.00000000       3189.82935       2.40948343    
   3.93283010       3.01776695      -10.0000000       1127.62634       2.73801041    
   3.93283010       3.01776695      -9.00000000       1127.62634       2.73801041    
   4.33012676       2.50000000      -9.00000000       1127.62634       2.73801041    
   4.33012676       2.50000000      -10.0000000       1127.62634       2.73801041    
   3.93283010       3.01776695      -9.00000000       1352.50183       2.56460452    
   3.93283010       3.01776695      -8.00000000       1352.50183       2.56460452    
   4.33012676       2.50000000      -8.00000000       1352.50183       2.56460452    
   4.33012676       2.50000000      -9.00000000       1352.50183       2.56460452    
   3.93283010       3.01776695      -8.00000000       1578.45911       2.49242043    
   3.93283010       3.01776695      -7.00000000       1578.45911       2.49242043    
   4.33012676       2.50000000      -7.00000000       1578.45911       2.49242043    
   4.33012676       2.50000000      -8.00000000       1578.45911       2.49242043    
   3.93283010       3.01776695      -7.00000000       1810.63306       2.45300722    
   3.93283010       3.01776695      -6.00000000       1810.63306       2.45300722    
   4.33012676       2.50000000      -6.00000000       1810.63306       2.45300722    
   4.33012676       2.50000000      -7.00000000       1810.63306       2.45300722    
   3.93283010       3.01776695      -6.00000000       2055.50732       2.42933798    
   3.93283010       3.01776695      -5.00000000       2055.50732       2.42933798    
   4.33012676       2.50000000      -5.00000000       2055.50732       2.42933798    
   4.33012676       2.50000000      -6.00000000       2055.50732       2.42933798    
   3.93283010       3.01776695      -5.00000000       2318.34863       2.41449618    
   3.93283010       3.01776695      -4.00000000       2318.34863       2.41449618    
   4.33012676       2.50000000      -4.00000000       2318.34863       2.41449618    
   4.33012676       2.50000000      -5.00000000       2318.34863       2.41449618    
   3.93283010       3.01776695      -4.00000000       2603.16357       2.40529227    
   3.93283010       3.01776695      -3.00000000       2603.16357       2.40529227    
   4.33012676       2.50000000      -3.00000000       2603.16357       2.40529227    
   4.33012676       2.50000000      -4.00000000       2603.16357       2.40529227    
   3.93283010       3.01776695      -3.00000000       2913.50391       2.39970708    
   3.93283010       3.01776695      -2.00000000       2913.50391       2.39970708    
   4.33012676       2.50000000      -2.00000000       2913.50391       2.39970708    
   4.33012676       2.50000000      -3.00000000       2913.50391       2.39970708    
   3.93283010       3.01776695      -2.00000000       3253.21924       2.39671898    
   3.93283010       3.01776695      -1.00000000       3253.21924       2.39671898    
   4.33012676       2.50000000      -1.00000000       3253.21924       2.39671898    
   4.33012676       2.50000000      -2.00000000       3253.21924       2.39671898    
   3.93283010       3.01776695      -1.00000000       3623.60376       2.39604259    
   3.93283010       3.01776695       0.00000000       3623.60376       2.39604259    
   4.33012676       2.50000000       0.00000000       3623.60376       2.39604259    
   4.33012676       2.50000000      -1.00000000       3623.60376       2.39604259    
   2.50000000       4.33012676      -10.0000000       772.845337       2.96035933    
   2.50000000       4.33012676      -9.00000000       772.845337       2.96035933    
   3.01776695       3.93283010      -9.00000000       772.845337       2.96035933    
   3.01776695       3.93283010      -10.0000000       772.845337       2.96035933    
   2.50000000       4.33012676      -9.00000000       834.733765       2.75008798    
   2.50000000       4.33012676      -8.00000000       834.733765       2.75008798    
   3.01776695       3.93283010      -8.00000000       834.733765       2.75008798    
   3.01776695       3.93283010      -9.00000000       834.733765       2.75008798    
   2.50000000       4.33012676      -8.00000000       938.973816       2.65052342    
   2.50000000       4.33012676      -7.00000000       938.973816       2.65052342    
   3.01776695       3.93283010      -7.00000000       938.973816       2.65052342    
   3.01776695       3.93283010      -8.00000000       938.973816       2.65052342    
   2.50000000       4.33012676      -7.00000000       1058.84546       2.59398246    
   2.50000000       4.33012676      -6.00000000       1058.84546       2.59398246    
   3.01776695       3.93283010      -6.00000000       1058.84546       2.59398246    
   3.01776695       3.93283010      -7.00000000       1058.84546       2.59398246    
   2.50000000       4.33012676      -6.00000000       1191.27527       2.55959702    
   2.50000000       4.33012676      -5.00000000       1191.27527       2.55959702    
   3.01776695       3.93283010      -5.00000000       1191.27527       2.55959702    
   3.01776695       3.93283010      -6.00000000       1191.27527       2.55959702    
   2.50000000       4.33012676      -5.00000000       1336.78369       2.53795695    
   2.50000000       4.33012676      -4.00000000       1336.78369       2.53795695    
   3.01776695       3.93283010      -4.00000000       1336.78369       2.53795695    
   3.01776695       3.93283010      -5.00000000       1336.78369       2.53795695    
   2.50000000       4.33012676      -4.00000000       1496.65027       2.52457523    
   2.50000000       4.33012676      -3.00000000       1496.65027       2.52457523    
   3.01776695       3.93283010      -3.00000000       1496.65027       2.52457523    
   3.01776695       3.93283010      -4.00000000       1496.65027       2.52457523    
   2.50000000       4.33012676      -3.00000000       1672.14856       2.51654196    
   2.50000000       4.33012676      -2.00000000       1672.14856       2.51654196    
   3.01776695       3.93283010      -2.00000000       1672.14856       2.51654196    
   3.01776695       3.93283010      -3.00000000       1672.14856       2.51654196    
   2.50000000       4.33012676      -2.00000000       1865.34802       2.51234317    
   2.50000000       4.33012676      -1.00000000       1865.34802       2.51234317    
   3.01776695       3.93283010      -1.00000000       1865.34802       2.51234317    
   3.01776695       3.93283010      -2.00000000       1865.34802       2.51234317    
   2.50000000       4.33012676      -1.00000000       2076.90186       2.51181746    
   2.50000000       4.33012676       0.00000000       2076.90186       2.51181746    
   3.01776695       3.93283010       0.00000000       2076.90186       2.51181746    
   3.01776695       3.93283010      -1.00000000       2076.90186       2.51181746    
   3.01776695       3.93283010      -10.0000000       888.737976       2.86012173    
   3.01776695       3.93283010      -9.00000000       888.737976       2.86012173    
   3.53553391       3.53553391      -9.00000000       888.737976       2.86012173    
   3.53553391       3.53553391      -10.0000000       888.737976       2.86012173    
   3.01776695       3.93283010      -9.00000000       1008.52087       2.65902424    
   3.01776695       3.93283010      -8.00000000       1008.52087       2.65902424    
   3.53553391       3.53553391      -8.00000000       1008.52087       2.65902424    
   3.53553391       3.53553391      -9.00000000       1008.52087       2.65902424    
   3.01776695       3.93283010      -8.00000000       1156.30737       2.56981349    
   3.01776695       3.93283010      -7.00000000       1156.30737       2.56981349    
   3.53553391       3.53553391      -7.00000000       1156.30737       2.56981349    
   3.53553391       3.53553391      -8.00000000       1156.30737       2.56981349    
   3.01776695       3.93283010      -7.00000000       1315.96509       2.52038026    
   3.01776695       3.93283010      -6.00000000       1315.96509       2.52038026    
   3.53553391       3.53553391      -6.00000000       1315.96509       2.52038026    
   3.53553391       3.53553391      -7.00000000       1315.96509       2.52038026    
   3.01776695       3.93283010      -6.00000000       1487.92749       2.49061656    
   3.01776695       3.93283010      -5.00000000       1487.92749       2.49061656    
   3.53553391       3.53553391      -5.00000000       1487.92749       2.49061656    
   3.53553391       3.53553391      -6.00000000       1487.92749       2.49061656    
   3.01776695       3.93283010      -5.00000000       1674.43103       2.47197485    
   3.01776695       3.93283010      -4.00000000       1674.43103       2.47197485    
   3.53553391       3.53553391      -4.00000000       1674.43103       2.47197485    
   3.53553391       3.53553391      -5.00000000       1674.43103       2.47197485    
   3.01776695       3.93283010      -4.00000000       1877.75598       2.46046090    
   3.01776695       3.93283010      -3.00000000       1877.75598       2.46046090    
   3.53553391       3.53553391      -3.00000000       1877.75598       2.46046090    
   3.53553391       3.53553391      -4.00000000       1877.75598       2.46046090    
   3.01776695       3.93283010      -3.00000000       2100.03076       2.45352316    
   3.01776695       3.93283010      -2.00000000       2100.03076       2.45352316    
   3.53553391       3.53553391      -2.00000000       2100.03076       2.45352316    
   3.53553391       3.53553391      -3.00000000       2100.03076       2.45352316    
   3.01776695       3.93283010      -2.00000000       2343.91870       2.44986916    
   3.01776695       3.93283010      -1.00000000       2343.91870       2.44986916    
   3.53553391       3.53553391      -1.00000000       2343.91870       2.44986916    
   3.53553391       3.53553391      -2.00000000       2343.91870       2.44986916    
   3.01776695       3.93283010      -1.00000000       2610.48462       2.44922733    
   3.01776695       3.93283010       0.00000000       2610.48462       2.44922733    
   3.53553391       3.53553391       0.00000000       2610.48462       2.44922733    
   3.53553391       3.53553391      -1.00000000       2610.48462       2.44922733    
   1.29409504       4.82962894      -10.0000000       578.230713      -2.89531755    
   1.29409504       4.82962894      -9.00000000       578.230713      -2.89531755    
   1.89704800       4.57987785      -9.00000000       578.230713      -2.89531755    
   1.89704800       4.57987785      -10.0000000       578.230713      -2.89531755    
   1.29409504       4.82962894      -9.00000000       519.302002      -3.01054287    
   1.29409504       4.82962894      -8.00000000       519.302002      -3.01054287    
   1.89704800       4.57987785      -8.00000000       519.302002      -3.01054287    
   1.89704800       4.57987785      -9.00000000       519.302002      -3.01054287    
   1.29409504       4.82962894      -8.00000000       525.787659      -3.08960032    
   1.29409504       4.82962894      -7.00000000       525.787659      -3.08960032    
   1.89704800       4.57987785      -7.00000000       525.787659      -3.08960032    
   1.89704800       4.57987785      -8.00000000       525.787659      -3.08960032    
   1.29409504       4.82962894      -7.00000000       556.194702       3.13907123    
   1.29409504       4.82962894      -6.00000000       556.194702       3.13907123    
   1.89704800       4.57987785      -6.00000000       556.194702       3.13907123    
   1.89704800       4.57987785      -7.00000000       556.194702       3.13907123    
   1.29409504       4.82962894      -6.00000000       601.336548       3.10191083    
   1.29409504       4.82962894      -5.00000000       601.336548       3.10191083    
   1.89704800       4.57987785      -5.00000000       601.336548       3.10191083    
   1.89704800       4.57987785      -6.00000000       601.336548       3.10191083    
   1.29409504       4.82962894      -5.00000000       658.000549       3.07681346    
   1.29409504       4.82962894      -4.00000000       658.000549       3.07681346    
   1.89704800       4.57987785      -4.00000000       658.000549       3.07681346    
   1.89704800       4.57987785      -5.00000000       658.000549       3.07681346    
   1.29409504       4.82962894      -4.00000000       725.346069       3.06063271    
   1.29409504       4.82962894      -3.00000000       725.346069       3.06063271    
   1.89704800       4.57987785      -3.00000000       725.346069       3.06063271    