 VARIABLES="X" "Y" "Z" "abs(p) (Pa)" "angle(p) (rad)"
ZONE N=   1080,E =     600, F=FEPOINT, ET=QUADRILATERAL
   4.82962894       1.29409504      -10.0000000       2939.02100      -1.17362177    
   4.82962894       1.29409504      -9.00000000       2939.02100      -1.17362177    
   4.91481400      0.647047520      -9.00000000       2939.02100      -1.17362177    
   4.91481400      0.647047520      -10.0000000       2939.02100      -1.17362177    
   4.82962894       1.29409504      -9.00000000       3768.24658      -1.18343139    
   4.82962894       1.29409504      -8.00000000       3768.24658      -1.18343139    
   4.91481400      0.647047520      -8.00000000       3768.24658      -1.18343139    
   4.91481400      0.647047520      -9.00000000       3768.24658      -1.18343139    
   4.82962894       1.29409504      -8.00000000       4323.72217      -1.16847837    
   4.82962894       1.29409504      -7.00000000       4323.72217      -1.16847837    
   4.91481400      0.647047520      -7.00000000       4323.72217      -1.16847837    
   4.91481400      0.647047520      -8.00000000       4323.72217      -1.16847837    
   4.82962894       1.29409504      -7.00000000       4794.32959      -1.14535594    
   4.82962894       1.29409504      -6.00000000       4794.32959      -1.14535594    
   4.91481400      0.647047520      -6.00000000       4794.32959      -1.14535594    
   4.91481400      0.647047520      -7.00000000       4794.32959      -1.14535594    
   4.82962894       1.29409504      -6.00000000       5245.18750      -1.11843526    
   4.82962894       1.29409504      -5.00000000       5245.18750      -1.11843526    
   4.91481400      0.647047520      -5.00000000       5245.18750      -1.11843526    
   4.91481400      0.647047520      -6.00000000       5245.18750      -1.11843526    
   4.82962894       1.29409504      -5.00000000       5716.34180      -1.09013426    
   4.82962894       1.29409504      -4.00000000       5716.34180      -1.09013426    
   4.91481400      0.647047520      -4.00000000       5716.34180      -1.09013426    
   4.91481400      0.647047520      -5.00000000       5716.34180      -1.09013426    
   4.82962894       1.29409504      -4.00000000       6239.35742      -1.06236959    
   4.82962894       1.29409504      -3.00000000       6239.35742      -1.06236959    
   4.91481400      0.647047520      -3.00000000       6239.35742      -1.06236959    
   4.91481400      0.647047520      -4.00000000       6239.35742      -1.06236959    
   4.82962894       1.29409504      -3.00000000       6846.24561      -1.03705752    
   4.82962894       1.29409504      -2.00000000       6846.24561      -1.03705752    
   4.91481400      0.647047520      -2.00000000       6846.24561      -1.03705752    
   4.91481400      0.647047520      -3.00000000       6846.24561      -1.03705752    
   4.82962894       1.29409504      -2.00000000       7574.86963      -1.01631606    
   4.82962894       1.29409504      -1.00000000       7574.86963      -1.01631606    
   4.91481400      0.647047520      -1.00000000       7574.86963      -1.01631606    
   4.91481400      0.647047520      -2.00000000       7574.86963      -1.01631606    
   4.82962894       1.29409504      -1.00000000       8478.40430      -1.00294149    
   4.82962894       1.29409504       0.00000000       8478.40430      -1.00294149    
   4.91481400      0.647047520       0.00000000       8478.40430      -1.00294149    
   4.91481400      0.647047520      -1.00000000       8478.40430      -1.00294149    
   4.91481400      0.647047520      -10.0000000       2983.82983      -1.17302823    
   4.91481400      0.647047520      -9.00000000       2983.82983      -1.17302823    
   5.00000000       0.00000000      -9.00000000       2983.82983      -1.17302823    
   5.00000000       0.00000000      -10.0000000       2983.82983      -1.17302823    
   4.91481400      0.647047520      -9.00000000       3826.54468      -1.18296385    
   4.91481400      0.647047520      -8.00000000       3826.54468      -1.18296385    
   5.00000000       0.00000000      -8.00000000       3826.54468      -1.18296385    
   5.00000000       0.00000000      -9.00000000       3826.54468      -1.18296385    
   4.91481400      0.647047520      -8.00000000       4391.25830      -1.16805482    
   4.91481400      0.647047520      -7.00000000       4391.25830      -1.16805482    
   5.00000000       0.00000000      -7.00000000       4391.25830      -1.16805482    
   5.00000000       0.00000000      -8.00000000       4391.25830      -1.16805482    
   4.91481400      0.647047520      -7.00000000       4869.72314      -1.14495277    
   4.91481400      0.647047520      -6.00000000       4869.72314      -1.14495277    
   5.00000000       0.00000000      -6.00000000       4869.72314      -1.14495277    
   5.00000000       0.00000000      -7.00000000       4869.72314      -1.14495277    
   4.91481400      0.647047520      -6.00000000       5328.12793      -1.11804497    
   4.91481400      0.647047520      -5.00000000       5328.12793      -1.11804497    
   5.00000000       0.00000000      -5.00000000       5328.12793      -1.11804497    
   5.00000000       0.00000000      -6.00000000       5328.12793      -1.11804497    
   4.91481400      0.647047520      -5.00000000       5807.16699      -1.08975518    
   4.91481400      0.647047520      -4.00000000       5807.16699      -1.08975518    
   5.00000000       0.00000000      -4.00000000       5807.16699      -1.08975518    
   5.00000000       0.00000000      -5.00000000       5807.16699      -1.08975518    
   4.91481400      0.647047520      -4.00000000       6338.93311      -1.06200361    
   4.91481400      0.647047520      -3.00000000       6338.93311      -1.06200361    
   5.00000000       0.00000000      -3.00000000       6338.93311      -1.06200361    
   5.00000000       0.00000000      -4.00000000       6338.93311      -1.06200361    
   4.91481400      0.647047520      -3.00000000       6955.96582      -1.03670835    
   4.91481400      0.647047520      -2.00000000       6955.96582      -1.03670835    
   5.00000000       0.00000000      -2.00000000       6955.96582      -1.03670835    
   5.00000000       0.00000000      -3.00000000       6955.96582      -1.03670835    
   4.91481400      0.647047520      -2.00000000       7696.75293      -1.01598835    
   4.91481400      0.647047520      -1.00000000       7696.75293      -1.01598835    
   5.00000000       0.00000000      -1.00000000       7696.75293      -1.01598835    
   5.00000000       0.00000000      -2.00000000       7696.75293      -1.01598835    
   4.91481400      0.647047520      -1.00000000       8615.40234      -1.00264287    
   4.91481400      0.647047520       0.00000000       8615.40234      -1.00264287    
   5.00000000       0.00000000       0.00000000       8615.40234      -1.00264287    
   5.00000000       0.00000000      -1.00000000       8615.40234      -1.00264287    
   4.33012676       2.50000000      -10.0000000       2693.92480      -1.17427886    
   4.33012676       2.50000000      -9.00000000       2693.92480      -1.17427886    
   4.57987785       1.89704800      -9.00000000       2693.92480      -1.17427886    
   4.57987785       1.89704800      -10.0000000       2693.92480      -1.17427886    
   4.33012676       2.50000000      -9.00000000       3453.14990      -1.18394876    
   4.33012676       2.50000000      -8.00000000       3453.14990      -1.18394876    
   4.57987785       1.89704800      -8.00000000       3453.14990      -1.18394876    
   4.57987785       1.89704800      -9.00000000       3453.14990      -1.18394876    
   4.33012676       2.50000000      -8.00000000       3961.52515      -1.16894710    
   4.33012676       2.50000000      -7.00000000       3961.52515      -1.16894710    
   4.57987785       1.89704800      -7.00000000       3961.52515      -1.16894710    
   4.57987785       1.89704800      -8.00000000       3961.52515      -1.16894710    
   4.33012676       2.50000000      -7.00000000       4392.21191      -1.14580274    
   4.33012676       2.50000000      -6.00000000       4392.21191      -1.14580274    
   4.57987785       1.89704800      -6.00000000       4392.21191      -1.14580274    
   4.57987785       1.89704800      -7.00000000       4392.21191      -1.14580274    
   4.33012676       2.50000000      -6.00000000       4804.79736      -1.11886775    
   4.33012676       2.50000000      -5.00000000       4804.79736      -1.11886775    
   4.57987785       1.89704800      -5.00000000       4804.79736      -1.11886775    
   4.57987785       1.89704800      -6.00000000       4804.79736      -1.11886775    
   4.33012676       2.50000000      -5.00000000       5235.95703      -1.09055531    
   4.33012676       2.50000000      -4.00000000       5235.95703      -1.09055531    
   4.57987785       1.89704800      -4.00000000       5235.95703      -1.09055531    
   4.57987785       1.89704800      -5.00000000       5235.95703      -1.09055531    
   4.33012676       2.50000000      -4.00000000       5714.58350      -1.06277585    
   4.33012676       2.50000000      -3.00000000       5714.58350      -1.06277585    
   4.57987785       1.89704800      -3.00000000       5714.58350      -1.06277585    
   4.57987785       1.89704800      -4.00000000       5714.58350      -1.06277585    
   4.33012676       2.50000000      -3.00000000       6269.96338      -1.03744495    
   4.33012676       2.50000000      -2.00000000       6269.96338      -1.03744495    
   4.57987785       1.89704800      -2.00000000       6269.96338      -1.03744495    
   4.57987785       1.89704800      -3.00000000       6269.96338      -1.03744495    
   4.33012676       2.50000000      -2.00000000       6936.78076      -1.01667917    
   4.33012676       2.50000000      -1.00000000       6936.78076      -1.01667917    
   4.57987785       1.89704800      -1.00000000       6936.78076      -1.01667917    
   4.57987785       1.89704800      -2.00000000       6936.78076      -1.01667917    
   4.33012676       2.50000000      -1.00000000       7763.62793      -1.00327241    
   4.33012676       2.50000000       0.00000000       7763.62793      -1.00327241    
   4.57987785       1.89704800       0.00000000       7763.62793      -1.00327241    
   4.57987785       1.89704800      -1.00000000       7763.62793      -1.00327241    
   4.57987785       1.89704800      -10.0000000       2825.29443      -1.17241132    
   4.57987785       1.89704800      -9.00000000       2825.29443      -1.17241132    
   4.82962894       1.29409504      -9.00000000       2825.29443      -1.17241132    
   4.82962894       1.29409504      -10.0000000       2825.29443      -1.17241132    
   4.57987785       1.89704800      -9.00000000       3624.07690      -1.18247807    
   4.57987785       1.89704800      -8.00000000       3624.07690      -1.18247807    
   4.82962894       1.29409504      -8.00000000       3624.07690      -1.18247807    
   4.82962894       1.29409504      -9.00000000       3624.07690      -1.18247807    
   4.57987785       1.89704800      -8.00000000       4159.54395      -1.16761518    
   4.57987785       1.89704800      -7.00000000       4159.54395      -1.16761518    
   4.82962894       1.29409504      -7.00000000       4159.54395      -1.16761518    
   4.82962894       1.29409504      -8.00000000       4159.54395      -1.16761518    
   4.57987785       1.89704800      -7.00000000       4613.25391      -1.14453435    
   4.57987785       1.89704800      -6.00000000       4613.25391      -1.14453435    
   4.82962894       1.29409504      -6.00000000       4613.25391      -1.14453435    
   4.82962894       1.29409504      -7.00000000       4613.25391      -1.14453435    
   4.57987785       1.89704800      -6.00000000       5047.96924      -1.11763942    
   4.57987785       1.89704800      -5.00000000       5047.96924      -1.11763942    
   4.82962894       1.29409504      -5.00000000       5047.96924      -1.11763942    
   4.82962894       1.29409504      -6.00000000       5047.96924      -1.11763942    
   4.57987785       1.89704800      -5.00000000       5502.24512      -1.08936155    
   4.57987785       1.89704800      -4.00000000       5502.24512      -1.08936155    
   4.82962894       1.29409504      -4.00000000       5502.24512      -1.08936155    
   4.82962894       1.29409504      -5.00000000       5502.24512      -1.08936155    
   4.57987785       1.89704800      -4.00000000       6006.52246      -1.06162286    
   4.57987785       1.89704800      -3.00000000       6006.52246      -1.06162286    
   4.82962894       1.29409504      -3.00000000       6006.52246      -1.06162286    
   4.82962894       1.29409504      -4.00000000       6006.52246      -1.06162286    
   4.57987785       1.89704800      -3.00000000       6591.65088      -1.03634596    
   4.57987785       1.89704800      -2.00000000       6591.65088      -1.03634596    
   4.82962894       1.29409504      -2.00000000       6591.65088      -1.03634596    
   4.82962894       1.29409504      -3.00000000       6591.65088      -1.03634596    
   4.57987785       1.89704800      -2.00000000       7294.10840      -1.01564872    
   4.57987785       1.89704800      -1.00000000       7294.10840      -1.01564872    
   4.82962894       1.29409504      -1.00000000       7294.10840      -1.01564872    
   4.82962894       1.29409504      -2.00000000       7294.10840      -1.01564872    
   4.57987785       1.89704800      -1.00000000       8165.27100      -1.00233376    
   4.57987785       1.89704800       0.00000000       8165.27100      -1.00233376    
   4.82962894       1.29409504       0.00000000       8165.27100      -1.00233376    
   4.82962894       1.29409504      -1.00000000       8165.27100      -1.00233376    
   3.53553391       3.53553391      -10.0000000       2265.24438      -1.17513096    
   3.53553391       3.53553391      -9.00000000       2265.24438      -1.17513096    
   3.93283010       3.01776695      -9.00000000       2265.24438      -1.17513096    
   3.93283010       3.01776695      -10.0000000       2265.24438      -1.17513096    
   3.53553391       3.53553391      -9.00000000       2902.72607      -1.18462157    
   3.53553391       3.53553391      -8.00000000       2902.72607      -1.18462157    
   3.93283010       3.01776695      -8.00000000       2902.72607      -1.18462157    
   3.93283010       3.01776695      -9.00000000       2902.72607      -1.18462157    
   3.53553391       3.53553391      -8.00000000       3329.36304      -1.16955650    
   3.53553391       3.53553391      -7.00000000       3329.36304      -1.16955650    
   3.93283010       3.01776695      -7.00000000       3329.36304      -1.16955650    
   3.93283010       3.01776695      -8.00000000       3329.36304      -1.16955650    
   3.53553391       3.53553391      -7.00000000       3690.77222      -1.14638293    
   3.53553391       3.53553391      -6.00000000       3690.77222      -1.14638293    
   3.93283010       3.01776695      -6.00000000       3690.77222      -1.14638293    
   3.93283010       3.01776695      -7.00000000       3690.77222      -1.14638293    
   3.53553391       3.53553391      -6.00000000       4036.96973      -1.11943030    
   3.53553391       3.53553391      -5.00000000       4036.96973      -1.11943030    
   3.93283010       3.01776695      -5.00000000       4036.96973      -1.11943030    
   3.93283010       3.01776695      -6.00000000       4036.96973      -1.11943030    
   3.53553391       3.53553391      -5.00000000       4398.75195      -1.09110212    
   3.53553391       3.53553391      -4.00000000       4398.75195      -1.09110212    
   3.93283010       3.01776695      -4.00000000       4398.75195      -1.09110212    
   3.93283010       3.01776695      -5.00000000       4398.75195      -1.09110212    
   3.53553391       3.53553391      -4.00000000       4800.37207      -1.06330383    
   3.53553391       3.53553391      -3.00000000       4800.37207      -1.06330383    
   3.93283010       3.01776695      -3.00000000       4800.37207      -1.06330383    
   3.93283010       3.01776695      -4.00000000       4800.37207      -1.06330383    
   3.53553391       3.53553391      -3.00000000       5266.39404      -1.03794849    
   3.53553391       3.53553391      -2.00000000       5266.39404      -1.03794849    
   3.93283010       3.01776695      -2.00000000       5266.39404      -1.03794849    
   3.93283010       3.01776695      -3.00000000       5266.39404      -1.03794849    
   3.53553391       3.53553391      -2.00000000       5825.95654      -1.01715183    
   3.53553391       3.53553391      -1.00000000       5825.95654      -1.01715183    
   3.93283010       3.01776695      -1.00000000       5825.95654      -1.01715183    
   3.93283010       3.01776695      -2.00000000       5825.95654      -1.01715183    
   3.53553391       3.53553391      -1.00000000       6519.76123      -1.00370359    
   3.53553391       3.53553391       0.00000000       6519.76123      -1.00370359    
   3.93283010       3.01776695       0.00000000       6519.76123      -1.00370359    
   3.93283010       3.01776695      -1.00000000       6519.76123      -1.00370359    
   3.93283010       3.01776695      -10.0000000       2474.22192      -1.17166615    
   3.93283010       3.01776695      -9.00000000       2474.22192      -1.17166615    
   4.33012676       2.50000000      -9.00000000       2474.22192      -1.17166615    
   4.33012676       2.50000000      -10.0000000       2474.22192      -1.17166615    
   3.93283010       3.01776695      -9.00000000       3174.62646      -1.18189251    
   3.93283010       3.01776695      -8.00000000       3174.62646      -1.18189251    
   4.33012676       2.50000000      -8.00000000       3174.62646      -1.18189251    
   4.33012676       2.50000000      -9.00000000       3174.62646      -1.18189251    
   3.93283010       3.01776695      -8.00000000       3644.36401      -1.16708517    
   3.93283010       3.01776695      -7.00000000       3644.36401      -1.16708517    
   4.33012676       2.50000000      -7.00000000       3644.36401      -1.16708517    
   4.33012676       2.50000000      -8.00000000       3644.36401      -1.16708517    
   3.93283010       3.01776695      -7.00000000       4042.40088      -1.14402997    
   3.93283010       3.01776695      -6.00000000       4042.40088      -1.14402997    
   4.33012676       2.50000000      -6.00000000       4042.40088      -1.14402997    
   4.33012676       2.50000000      -7.00000000       4042.40088      -1.14402997    
   3.93283010       3.01776695      -6.00000000       4423.79688      -1.11715078    
   3.93283010       3.01776695      -5.00000000       4423.79688      -1.11715078    
   4.33012676       2.50000000      -5.00000000       4423.79688      -1.11715078    
   4.33012676       2.50000000      -6.00000000       4423.79688      -1.11715078    
   3.93283010       3.01776695      -5.00000000       4822.35400      -1.08888710    
   3.93283010       3.01776695      -4.00000000       4822.35400      -1.08888710    
   4.33012676       2.50000000      -4.00000000       4822.35400      -1.08888710    
   4.33012676       2.50000000      -5.00000000       4822.35400      -1.08888710    
   3.93283010       3.01776695      -4.00000000       5264.77490      -1.06116486    
   3.93283010       3.01776695      -3.00000000       5264.77490      -1.06116486    
   4.33012676       2.50000000      -3.00000000       5264.77490      -1.06116486    
   4.33012676       2.50000000      -4.00000000       5264.77490      -1.06116486    
   3.93283010       3.01776695      -3.00000000       5778.12744      -1.03590918    
   3.93283010       3.01776695      -2.00000000       5778.12744      -1.03590918    
   4.33012676       2.50000000      -2.00000000       5778.12744      -1.03590918    
   4.33012676       2.50000000      -3.00000000       5778.12744      -1.03590918    
   3.93283010       3.01776695      -2.00000000       6394.38867      -1.01523983    
   3.93283010       3.01776695      -1.00000000       6394.38867      -1.01523983    
   4.33012676       2.50000000      -1.00000000       6394.38867      -1.01523983    
   4.33012676       2.50000000      -2.00000000       6394.38867      -1.01523983    
   3.93283010       3.01776695      -1.00000000       7158.69385      -1.00196099    
   3.93283010       3.01776695       0.00000000       7158.69385      -1.00196099    
   4.33012676       2.50000000       0.00000000       7158.69385      -1.00196099    
   4.33012676       2.50000000      -1.00000000       7158.69385      -1.00196099    
   2.50000000       4.33012676      -10.0000000       1682.19263      -1.17649734    
   2.50000000       4.33012676      -9.00000000       1682.19263      -1.17649734    
   3.01776695       3.93283010      -9.00000000       1682.19263      -1.17649734    
   3.01776695       3.93283010      -10.0000000       1682.19263      -1.17649734    
   2.50000000       4.33012676      -9.00000000       2154.48877      -1.18569875    
   2.50000000       4.33012676      -8.00000000       2154.48877      -1.18569875    
   3.01776695       3.93283010      -8.00000000       2154.48877      -1.18569875    
   3.01776695       3.93283010      -9.00000000       2154.48877      -1.18569875    
   2.50000000       4.33012676      -8.00000000       2470.30737      -1.17053330    
   2.50000000       4.33012676      -7.00000000       2470.30737      -1.17053330    
   3.01776695       3.93283010      -7.00000000       2470.30737      -1.17053330    
   3.01776695       3.93283010      -8.00000000       2470.30737      -1.17053330    
   2.50000000       4.33012676      -7.00000000       2737.81616      -1.14731395    
   2.50000000       4.33012676      -6.00000000       2737.81616      -1.14731395    
   3.01776695       3.93283010      -6.00000000       2737.81616      -1.14731395    
   3.01776695       3.93283010      -7.00000000       2737.81616      -1.14731395    
   2.50000000       4.33012676      -6.00000000       2994.02979      -1.12033236    
   2.50000000       4.33012676      -5.00000000       2994.02979      -1.12033236    
   3.01776695       3.93283010      -5.00000000       2994.02979      -1.12033236    
   3.01776695       3.93283010      -6.00000000       2994.02979      -1.12033236    
   2.50000000       4.33012676      -5.00000000       3261.78223      -1.09197927    
   2.50000000       4.33012676      -4.00000000       3261.78223      -1.09197927    
   3.01776695       3.93283010      -4.00000000       3261.78223      -1.09197927    
   3.01776695       3.93283010      -5.00000000       3261.78223      -1.09197927    
   2.50000000       4.33012676      -4.00000000       3559.02344      -1.06415141    
   2.50000000       4.33012676      -3.00000000       3559.02344      -1.06415141    
   3.01776695       3.93283010      -3.00000000       3559.02344      -1.06415141    
   3.01776695       3.93283010      -4.00000000       3559.02344      -1.06415141    
   2.50000000       4.33012676      -3.00000000       3903.93652      -1.03875804    
   2.50000000       4.33012676      -2.00000000       3903.93652      -1.03875804    
   3.01776695       3.93283010      -2.00000000       3903.93652      -1.03875804    
   3.01776695       3.93283010      -3.00000000       3903.93652      -1.03875804    
   2.50000000       4.33012676      -2.00000000       4318.10840      -1.01790941    
   2.50000000       4.33012676      -1.00000000       4318.10840      -1.01790941    
   3.01776695       3.93283010      -1.00000000       4318.10840      -1.01790941    
   3.01776695       3.93283010      -2.00000000       4318.10840      -1.01790941    
   2.50000000       4.33012676      -1.00000000       4831.59180      -1.00439441    
   2.50000000       4.33012676       0.00000000       4831.59180      -1.00439441    
   3.01776695       3.93283010       0.00000000       4831.59180      -1.00439441    
   3.01776695       3.93283010      -1.00000000       4831.59180      -1.00439441    
   3.01776695       3.93283010      -10.0000000       1954.53625      -1.17059028    
   3.01776695       3.93283010      -9.00000000       1954.53625      -1.17059028    
   3.53553391       3.53553391      -9.00000000       1954.53625      -1.17059028    
   3.53553391       3.53553391      -10.0000000       1954.53625      -1.17059028    
   3.01776695       3.93283010      -9.00000000       2508.83740      -1.18104613    
   3.01776695       3.93283010      -8.00000000       2508.83740      -1.18104613    
   3.53553391       3.53553391      -8.00000000       2508.83740      -1.18104613    
   3.53553391       3.53553391      -9.00000000       2508.83740      -1.18104613    
   3.01776695       3.93283010      -8.00000000       2880.82593      -1.16631997    
   3.01776695       3.93283010      -7.00000000       2880.82593      -1.16631997    
   3.53553391       3.53553391      -7.00000000       2880.82593      -1.16631997    
   3.53553391       3.53553391      -8.00000000       2880.82593      -1.16631997    
   3.01776695       3.93283010      -7.00000000       3196.06372      -1.14330137    
   3.01776695       3.93283010      -6.00000000       3196.06372      -1.14330137    
   3.53553391       3.53553391      -6.00000000       3196.06372      -1.14330137    
   3.53553391       3.53553391      -7.00000000       3196.06372      -1.14330137    
   3.01776695       3.93283010      -6.00000000       3498.15259      -1.11644626    
   3.01776695       3.93283010      -5.00000000       3498.15259      -1.11644626    
   3.53553391       3.53553391      -5.00000000       3498.15259      -1.11644626    
   3.53553391       3.53553391      -6.00000000       3498.15259      -1.11644626    
   3.01776695       3.93283010      -5.00000000       3813.82959      -1.08820283    
   3.01776695       3.93283010      -4.00000000       3813.82959      -1.08820283    
   3.53553391       3.53553391      -4.00000000       3813.82959      -1.08820283    
   3.53553391       3.53553391      -5.00000000       3813.82959      -1.08820283    
   3.01776695       3.93283010      -4.00000000       4164.24365      -1.06050372    
   3.01776695       3.93283010      -3.00000000       4164.24365      -1.06050372    
   3.53553391       3.53553391      -3.00000000       4164.24365      -1.06050372    
   3.53553391       3.53553391      -4.00000000       4164.24365      -1.06050372    
   3.01776695       3.93283010      -3.00000000       4570.83594      -1.03527963    
   3.01776695       3.93283010      -2.00000000       4570.83594      -1.03527963    
   3.53553391       3.53553391      -2.00000000       4570.83594      -1.03527963    
   3.53553391       3.53553391      -3.00000000       4570.83594      -1.03527963    
   3.01776695       3.93283010      -2.00000000       5058.89990      -1.01464951    
   3.01776695       3.93283010      -1.00000000       5058.89990      -1.01464951    
   3.53553391       3.53553391      -1.00000000       5058.89990      -1.01464951    
   3.53553391       3.53553391      -2.00000000       5058.89990      -1.01464951    
   3.01776695       3.93283010      -1.00000000       5664.26660      -1.00142336    
   3.01776695       3.93283010       0.00000000       5664.26660      -1.00142336    
   3.53553391       3.53553391       0.00000000       5664.26660      -1.00142336    
   3.53553391       3.53553391      -1.00000000       5664.26660      -1.00142336    
   1.29409504       4.82962894      -10.0000000       984.509827      -1.17963922    
   1.29409504       4.82962894      -9.00000000       984.509827      -1.17963922    
   1.89704800       4.57987785      -9.00000000       984.509827      -1.17963922    
   1.89704800       4.57987785      -10.0000000       984.509827      -1.17963922    
   1.29409504       4.82962894      -9.00000000       1259.43066      -1.18818295    
   1.29409504       4.82962894      -8.00000000       1259.43066      -1.18818295    
   1.89704800       4.57987785      -8.00000000       1259.43066      -1.18818295    
   1.89704800       4.57987785      -9.00000000       1259.43066      -1.18818295    
   1.29409504       4.82962894      -8.00000000       1442.91199      -1.17278719    
   1.29409504       4.82962894      -7.00000000       1442.91199      -1.17278719    
   1.89704800       4.57987785      -7.00000000       1442.91199      -1.17278719    
   1.89704800       4.57987785      -8.00000000       1442.91199      -1.17278719    
   1.29409504       4.82962894      -7.00000000       1598.28638      -1.14946389    
   1.29409504       4.82962894      -6.00000000       1598.28638      -1.14946389    
   1.89704800       4.57987785      -6.00000000       1598.28638      -1.14946389    
   1.89704800       4.57987785      -7.00000000       1598.28638      -1.14946389    
   1.29409504       4.82962894      -6.00000000       1747.05750      -1.12241721    
   1.29409504       4.82962894      -5.00000000       1747.05750      -1.12241721    
   1.89704800       4.57987785      -5.00000000       1747.05750      -1.12241721    
   1.89704800       4.57987785      -6.00000000       1747.05750      -1.12241721    
   1.29409504       4.82962894      -5.00000000       1902.53198      -1.09400761    
   1.29409504       4.82962894      -4.00000000       1902.53198      -1.09400761    
   1.89704800       4.57987785      -4.00000000       1902.53198      -1.09400761    
   1.89704800       4.57987785      -5.00000000       1902.53198      -1.09400761    
   1.29409504       4.82962894      -4.00000000       2075.13623      -1.06611371    
   1.29409504       4.82962894      -3.00000000       2075.13623      -1.06611371    
   1.89704800       4.57987785      -3.00000000       2075.13623      -1.06611371    