 VARIABLES="X" "Y" "Z" "abs(p) (Pa)" "angle(p) (rad)"
ZONE N=   1080,E =     600, F=FEPOINT, ET=QUADRILATERAL
   4.82962894       1.29409504      -10.0000000       120.210434       1.57079661    
   4.82962894       1.29409504      -9.00000000       120.210434       1.57079661    
   4.91481400      0.647047520      -9.00000000       120.210434       1.57079661    
   4.91481400      0.647047520      -10.0000000       120.210434       1.57079661    
   4.82962894       1.29409504      -9.00000000       122.934715       1.57079649    
   4.82962894       1.29409504      -8.00000000       122.934715       1.57079649    
   4.91481400      0.647047520      -8.00000000       122.934715       1.57079649    
   4.91481400      0.647047520      -9.00000000       122.934715       1.57079649    
   4.82962894       1.29409504      -8.00000000       122.950073       1.57079673    
   4.82962894       1.29409504      -7.00000000       122.950073       1.57079673    
   4.91481400      0.647047520      -7.00000000       122.950073       1.57079673    
   4.91481400      0.647047520      -8.00000000       122.950073       1.57079673    
   4.82962894       1.29409504      -7.00000000       122.969887       1.57079709    
   4.82962894       1.29409504      -6.00000000       122.969887       1.57079709    
   4.91481400      0.647047520      -6.00000000       122.969887       1.57079709    
   4.91481400      0.647047520      -7.00000000       122.969887       1.57079709    
   4.82962894       1.29409504      -6.00000000       122.923241       1.57079673    
   4.82962894       1.29409504      -5.00000000       122.923241       1.57079673    
   4.91481400      0.647047520      -5.00000000       122.923241       1.57079673    
   4.91481400      0.647047520      -6.00000000       122.923241       1.57079673    
   4.82962894       1.29409504      -5.00000000       122.923149       1.57079720    
   4.82962894       1.29409504      -4.00000000       122.923149       1.57079720    
   4.91481400      0.647047520      -4.00000000       122.923149       1.57079720    
   4.91481400      0.647047520      -5.00000000       122.923149       1.57079720    
   4.82962894       1.29409504      -4.00000000       123.016579       1.57079768    
   4.82962894       1.29409504      -3.00000000       123.016579       1.57079768    
   4.91481400      0.647047520      -3.00000000       123.016579       1.57079768    
   4.91481400      0.647047520      -4.00000000       123.016579       1.57079768    
   4.82962894       1.29409504      -3.00000000       122.976364       1.57079744    
   4.82962894       1.29409504      -2.00000000       122.976364       1.57079744    
   4.91481400      0.647047520      -2.00000000       122.976364       1.57079744    
   4.91481400      0.647047520      -3.00000000       122.976364       1.57079744    
   4.82962894       1.29409504      -2.00000000       122.992790       1.57079816    
   4.82962894       1.29409504      -1.00000000       122.992790       1.57079816    
   4.91481400      0.647047520      -1.00000000       122.992790       1.57079816    
   4.91481400      0.647047520      -2.00000000       122.992790       1.57079816    
   4.82962894       1.29409504      -1.00000000       122.577209       1.57079828    
   4.82962894       1.29409504       0.00000000       122.577209       1.57079828    
   4.91481400      0.647047520       0.00000000       122.577209       1.57079828    
   4.91481400      0.647047520      -1.00000000       122.577209       1.57079828    
   4.91481400      0.647047520      -10.0000000       120.212379      -1.57079625    
   4.91481400      0.647047520      -9.00000000       120.212379      -1.57079625    
   5.00000000       0.00000000      -9.00000000       120.212379      -1.57079625    
   5.00000000       0.00000000      -10.0000000       120.212379      -1.57079625    
   4.91481400      0.647047520      -9.00000000       122.937195      -1.57079613    
   4.91481400      0.647047520      -8.00000000       122.937195      -1.57079613    
   5.00000000       0.00000000      -8.00000000       122.937195      -1.57079613    
   5.00000000       0.00000000      -9.00000000       122.937195      -1.57079613    
   4.91481400      0.647047520      -8.00000000       122.952110      -1.57079613    
   4.91481400      0.647047520      -7.00000000       122.952110      -1.57079613    
   5.00000000       0.00000000      -7.00000000       122.952110      -1.57079613    
   5.00000000       0.00000000      -8.00000000       122.952110      -1.57079613    
   4.91481400      0.647047520      -7.00000000       122.972214      -1.57079613    
   4.91481400      0.647047520      -6.00000000       122.972214      -1.57079613    
   5.00000000       0.00000000      -6.00000000       122.972214      -1.57079613    
   5.00000000       0.00000000      -7.00000000       122.972214      -1.57079613    
   4.91481400      0.647047520      -6.00000000       122.925201      -1.57079601    
   4.91481400      0.647047520      -5.00000000       122.925201      -1.57079601    
   5.00000000       0.00000000      -5.00000000       122.925201      -1.57079601    
   5.00000000       0.00000000      -6.00000000       122.925201      -1.57079601    
   4.91481400      0.647047520      -5.00000000       122.925491      -1.57079577    
   4.91481400      0.647047520      -4.00000000       122.925491      -1.57079577    
   5.00000000       0.00000000      -4.00000000       122.925491      -1.57079577    
   5.00000000       0.00000000      -5.00000000       122.925491      -1.57079577    
   4.91481400      0.647047520      -4.00000000       123.018944      -1.57079577    
   4.91481400      0.647047520      -3.00000000       123.018944      -1.57079577    
   5.00000000       0.00000000      -3.00000000       123.018944      -1.57079577    
   5.00000000       0.00000000      -4.00000000       123.018944      -1.57079577    
   4.91481400      0.647047520      -3.00000000       122.978592      -1.57079494    
   4.91481400      0.647047520      -2.00000000       122.978592      -1.57079494    
   5.00000000       0.00000000      -2.00000000       122.978592      -1.57079494    
   5.00000000       0.00000000      -3.00000000       122.978592      -1.57079494    
   4.91481400      0.647047520      -2.00000000       122.995102      -1.57079530    
   4.91481400      0.647047520      -1.00000000       122.995102      -1.57079530    
   5.00000000       0.00000000      -1.00000000       122.995102      -1.57079530    
   5.00000000       0.00000000      -2.00000000       122.995102      -1.57079530    
   4.91481400      0.647047520      -1.00000000       122.579086      -1.57079506    
   4.91481400      0.647047520       0.00000000       122.579086      -1.57079506    
   5.00000000       0.00000000       0.00000000       122.579086      -1.57079506    
   5.00000000       0.00000000      -1.00000000       122.579086      -1.57079506    
   4.33012676       2.50000000      -10.0000000       120.211861       1.57079649    
   4.33012676       2.50000000      -9.00000000       120.211861       1.57079649    
   4.57987785       1.89704800      -9.00000000       120.211861       1.57079649    
   4.57987785       1.89704800      -10.0000000       120.211861       1.57079649    
   4.33012676       2.50000000      -9.00000000       122.936493       1.57079637    
   4.33012676       2.50000000      -8.00000000       122.936493       1.57079637    
   4.57987785       1.89704800      -8.00000000       122.936493       1.57079637    
   4.57987785       1.89704800      -9.00000000       122.936493       1.57079637    
   4.33012676       2.50000000      -8.00000000       122.951607       1.57079637    
   4.33012676       2.50000000      -7.00000000       122.951607       1.57079637    
   4.57987785       1.89704800      -7.00000000       122.951607       1.57079637    
   4.57987785       1.89704800      -8.00000000       122.951607       1.57079637    
   4.33012676       2.50000000      -7.00000000       122.971466       1.57079637    
   4.33012676       2.50000000      -6.00000000       122.971466       1.57079637    
   4.57987785       1.89704800      -6.00000000       122.971466       1.57079637    
   4.57987785       1.89704800      -7.00000000       122.971466       1.57079637    
   4.33012676       2.50000000      -6.00000000       122.924400       1.57079685    
   4.33012676       2.50000000      -5.00000000       122.924400       1.57079685    
   4.57987785       1.89704800      -5.00000000       122.924400       1.57079685    
   4.57987785       1.89704800      -6.00000000       122.924400       1.57079685    
   4.33012676       2.50000000      -5.00000000       122.924721       1.57079685    
   4.33012676       2.50000000      -4.00000000       122.924721       1.57079685    
   4.57987785       1.89704800      -4.00000000       122.924721       1.57079685    
   4.57987785       1.89704800      -5.00000000       122.924721       1.57079685    
   4.33012676       2.50000000      -4.00000000       123.018166       1.57079720    
   4.33012676       2.50000000      -3.00000000       123.018166       1.57079720    
   4.57987785       1.89704800      -3.00000000       123.018166       1.57079720    
   4.57987785       1.89704800      -4.00000000       123.018166       1.57079720    
   4.33012676       2.50000000      -3.00000000       122.977821       1.57079768    
   4.33012676       2.50000000      -2.00000000       122.977821       1.57079768    
   4.57987785       1.89704800      -2.00000000       122.977821       1.57079768    
   4.57987785       1.89704800      -3.00000000       122.977821       1.57079768    
   4.33012676       2.50000000      -2.00000000       122.994118       1.57079732    
   4.33012676       2.50000000      -1.00000000       122.994118       1.57079732    
   4.57987785       1.89704800      -1.00000000       122.994118       1.57079732    
   4.57987785       1.89704800      -2.00000000       122.994118       1.57079732    
   4.33012676       2.50000000      -1.00000000       122.578316       1.57079780    
   4.33012676       2.50000000       0.00000000       122.578316       1.57079780    
   4.57987785       1.89704800       0.00000000       122.578316       1.57079780    
   4.57987785       1.89704800      -1.00000000       122.578316       1.57079780    
   4.57987785       1.89704800      -10.0000000       120.212105      -1.57079601    
   4.57987785       1.89704800      -9.00000000       120.212105      -1.57079601    
   4.82962894       1.29409504      -9.00000000       120.212105      -1.57079601    
   4.82962894       1.29409504      -10.0000000       120.212105      -1.57079601    
   4.57987785       1.89704800      -9.00000000       122.936981      -1.57079613    
   4.57987785       1.89704800      -8.00000000       122.936981      -1.57079613    
   4.82962894       1.29409504      -8.00000000       122.936981      -1.57079613    
   4.82962894       1.29409504      -9.00000000       122.936981      -1.57079613    
   4.57987785       1.89704800      -8.00000000       122.952209      -1.57079613    
   4.57987785       1.89704800      -7.00000000       122.952209      -1.57079613    
   4.82962894       1.29409504      -7.00000000       122.952209      -1.57079613    
   4.82962894       1.29409504      -8.00000000       122.952209      -1.57079613    
   4.57987785       1.89704800      -7.00000000       122.972382      -1.57079613    
   4.57987785       1.89704800      -6.00000000       122.972382      -1.57079613    
   4.82962894       1.29409504      -6.00000000       122.972382      -1.57079613    
   4.82962894       1.29409504      -7.00000000       122.972382      -1.57079613    
   4.57987785       1.89704800      -6.00000000       122.925568      -1.57079566    
   4.57987785       1.89704800      -5.00000000       122.925568      -1.57079566    
   4.82962894       1.29409504      -5.00000000       122.925568      -1.57079566    
   4.82962894       1.29409504      -6.00000000       122.925568      -1.57079566    
   4.57987785       1.89704800      -5.00000000       122.925636      -1.57079566    
   4.57987785       1.89704800      -4.00000000       122.925636      -1.57079566    
   4.82962894       1.29409504      -4.00000000       122.925636      -1.57079566    
   4.82962894       1.29409504      -5.00000000       122.925636      -1.57079566    
   4.57987785       1.89704800      -4.00000000       123.019562      -1.57079577    
   4.57987785       1.89704800      -3.00000000       123.019562      -1.57079577    
   4.82962894       1.29409504      -3.00000000       123.019562      -1.57079577    
   4.82962894       1.29409504      -4.00000000       123.019562      -1.57079577    
   4.57987785       1.89704800      -3.00000000       122.979012      -1.57079506    
   4.57987785       1.89704800      -2.00000000       122.979012      -1.57079506    
   4.82962894       1.29409504      -2.00000000       122.979012      -1.57079506    
   4.82962894       1.29409504      -3.00000000       122.979012      -1.57079506    
   4.57987785       1.89704800      -2.00000000       122.994736      -1.57079434    
   4.57987785       1.89704800      -1.00000000       122.994736      -1.57079434    
   4.82962894       1.29409504      -1.00000000       122.994736      -1.57079434    
   4.82962894       1.29409504      -2.00000000       122.994736      -1.57079434    
   4.57987785       1.89704800      -1.00000000       122.579597      -1.57079387    
   4.57987785       1.89704800       0.00000000       122.579597      -1.57079387    
   4.82962894       1.29409504       0.00000000       122.579597      -1.57079387    
   4.82962894       1.29409504      -1.00000000       122.579597      -1.57079387    
   3.53553391       3.53553391      -10.0000000       120.212387       1.57079649    
   3.53553391       3.53553391      -9.00000000       120.212387       1.57079649    
   3.93283010       3.01776695      -9.00000000       120.212387       1.57079649    
   3.93283010       3.01776695      -10.0000000       120.212387       1.57079649    
   3.53553391       3.53553391      -9.00000000       122.936745       1.57079649    
   3.53553391       3.53553391      -8.00000000       122.936745       1.57079649    
   3.93283010       3.01776695      -8.00000000       122.936745       1.57079649    
   3.93283010       3.01776695      -9.00000000       122.936745       1.57079649    
   3.53553391       3.53553391      -8.00000000       122.952164       1.57079649    
   3.53553391       3.53553391      -7.00000000       122.952164       1.57079649    
   3.93283010       3.01776695      -7.00000000       122.952164       1.57079649    
   3.93283010       3.01776695      -8.00000000       122.952164       1.57079649    
   3.53553391       3.53553391      -7.00000000       122.971901       1.57079661    
   3.53553391       3.53553391      -6.00000000       122.971901       1.57079661    
   3.93283010       3.01776695      -6.00000000       122.971901       1.57079661    
   3.93283010       3.01776695      -7.00000000       122.971901       1.57079661    
   3.53553391       3.53553391      -6.00000000       122.924927       1.57079685    
   3.53553391       3.53553391      -5.00000000       122.924927       1.57079685    
   3.93283010       3.01776695      -5.00000000       122.924927       1.57079685    
   3.93283010       3.01776695      -6.00000000       122.924927       1.57079685    
   3.53553391       3.53553391      -5.00000000       122.925156       1.57079697    
   3.53553391       3.53553391      -4.00000000       122.925156       1.57079697    
   3.93283010       3.01776695      -4.00000000       122.925156       1.57079697    
   3.93283010       3.01776695      -5.00000000       122.925156       1.57079697    
   3.53553391       3.53553391      -4.00000000       123.018394       1.57079720    
   3.53553391       3.53553391      -3.00000000       123.018394       1.57079720    
   3.93283010       3.01776695      -3.00000000       123.018394       1.57079720    
   3.93283010       3.01776695      -4.00000000       123.018394       1.57079720    
   3.53553391       3.53553391      -3.00000000       122.978256       1.57079744    
   3.53553391       3.53553391      -2.00000000       122.978256       1.57079744    
   3.93283010       3.01776695      -2.00000000       122.978256       1.57079744    
   3.93283010       3.01776695      -3.00000000       122.978256       1.57079744    
   3.53553391       3.53553391      -2.00000000       122.994522       1.57079804    
   3.53553391       3.53553391      -1.00000000       122.994522       1.57079804    
   3.93283010       3.01776695      -1.00000000       122.994522       1.57079804    
   3.93283010       3.01776695      -2.00000000       122.994522       1.57079804    
   3.53553391       3.53553391      -1.00000000       122.578773       1.57079852    
   3.53553391       3.53553391       0.00000000       122.578773       1.57079852    
   3.93283010       3.01776695       0.00000000       122.578773       1.57079852    
   3.93283010       3.01776695      -1.00000000       122.578773       1.57079852    
   3.93283010       3.01776695      -10.0000000       120.211533      -1.57079601    
   3.93283010       3.01776695      -9.00000000       120.211533      -1.57079601    
   4.33012676       2.50000000      -9.00000000       120.211533      -1.57079601    
   4.33012676       2.50000000      -10.0000000       120.211533      -1.57079601    
   3.93283010       3.01776695      -9.00000000       122.935905      -1.57079601    
   3.93283010       3.01776695      -8.00000000       122.935905      -1.57079601    
   4.33012676       2.50000000      -8.00000000       122.935905      -1.57079601    
   4.33012676       2.50000000      -9.00000000       122.935905      -1.57079601    
   3.93283010       3.01776695      -8.00000000       122.951149      -1.57079601    
   3.93283010       3.01776695      -7.00000000       122.951149      -1.57079601    
   4.33012676       2.50000000      -7.00000000       122.951149      -1.57079601    
   4.33012676       2.50000000      -8.00000000       122.951149      -1.57079601    
   3.93283010       3.01776695      -7.00000000       122.970978      -1.57079589    
   3.93283010       3.01776695      -6.00000000       122.970978      -1.57079589    
   4.33012676       2.50000000      -6.00000000       122.970978      -1.57079589    
   4.33012676       2.50000000      -7.00000000       122.970978      -1.57079589    
   3.93283010       3.01776695      -6.00000000       122.924606      -1.57079577    
   3.93283010       3.01776695      -5.00000000       122.924606      -1.57079577    
   4.33012676       2.50000000      -5.00000000       122.924606      -1.57079577    
   4.33012676       2.50000000      -6.00000000       122.924606      -1.57079577    
   3.93283010       3.01776695      -5.00000000       122.924782      -1.57079530    
   3.93283010       3.01776695      -4.00000000       122.924782      -1.57079530    
   4.33012676       2.50000000      -4.00000000       122.924782      -1.57079530    
   4.33012676       2.50000000      -5.00000000       122.924782      -1.57079530    
   3.93283010       3.01776695      -4.00000000       123.018372      -1.57079506    
   3.93283010       3.01776695      -3.00000000       123.018372      -1.57079506    
   4.33012676       2.50000000      -3.00000000       123.018372      -1.57079506    
   4.33012676       2.50000000      -4.00000000       123.018372      -1.57079506    
   3.93283010       3.01776695      -3.00000000       122.978096      -1.57079482    
   3.93283010       3.01776695      -2.00000000       122.978096      -1.57079482    
   4.33012676       2.50000000      -2.00000000       122.978096      -1.57079482    
   4.33012676       2.50000000      -3.00000000       122.978096      -1.57079482    
   3.93283010       3.01776695      -2.00000000       122.994072      -1.57079494    
   3.93283010       3.01776695      -1.00000000       122.994072      -1.57079494    
   4.33012676       2.50000000      -1.00000000       122.994072      -1.57079494    
   4.33012676       2.50000000      -2.00000000       122.994072      -1.57079494    
   3.93283010       3.01776695      -1.00000000       122.578606      -1.57079387    
   3.93283010       3.01776695       0.00000000       122.578606      -1.57079387    
   4.33012676       2.50000000       0.00000000       122.578606      -1.57079387    
   4.33012676       2.50000000      -1.00000000       122.578606      -1.57079387    
   2.50000000       4.33012676      -10.0000000       120.211441       1.57079649    
   2.50000000       4.33012676      -9.00000000       120.211441       1.57079649    
   3.01776695       3.93283010      -9.00000000       120.211441       1.57079649    
   3.01776695       3.93283010      -10.0000000       120.211441       1.57079649    
   2.50000000       4.33012676      -9.00000000       122.935783       1.57079661    
   2.50000000       4.33012676      -8.00000000       122.935783       1.57079661    
   3.01776695       3.93283010      -8.00000000       122.935783       1.57079661    
   3.01776695       3.93283010      -9.00000000       122.935783       1.57079661    
   2.50000000       4.33012676      -8.00000000       122.951195       1.57079685    
   2.50000000       4.33012676      -7.00000000       122.951195       1.57079685    
   3.01776695       3.93283010      -7.00000000       122.951195       1.57079685    
   3.01776695       3.93283010      -8.00000000       122.951195       1.57079685    
   2.50000000       4.33012676      -7.00000000       122.971169       1.57079661    
   2.50000000       4.33012676      -6.00000000       122.971169       1.57079661    
   3.01776695       3.93283010      -6.00000000       122.971169       1.57079661    
   3.01776695       3.93283010      -7.00000000       122.971169       1.57079661    
   2.50000000       4.33012676      -6.00000000       122.924210       1.57079673    
   2.50000000       4.33012676      -5.00000000       122.924210       1.57079673    
   3.01776695       3.93283010      -5.00000000       122.924210       1.57079673    
   3.01776695       3.93283010      -6.00000000       122.924210       1.57079673    
   2.50000000       4.33012676      -5.00000000       122.924370       1.57079732    
   2.50000000       4.33012676      -4.00000000       122.924370       1.57079732    
   3.01776695       3.93283010      -4.00000000       122.924370       1.57079732    
   3.01776695       3.93283010      -5.00000000       122.924370       1.57079732    
   2.50000000       4.33012676      -4.00000000       123.017982       1.57079673    
   2.50000000       4.33012676      -3.00000000       123.017982       1.57079673    
   3.01776695       3.93283010      -3.00000000       123.017982       1.57079673    
   3.01776695       3.93283010      -4.00000000       123.017982       1.57079673    
   2.50000000       4.33012676      -3.00000000       122.977547       1.57079816    
   2.50000000       4.33012676      -2.00000000       122.977547       1.57079816    
   3.01776695       3.93283010      -2.00000000       122.977547       1.57079816    
   3.01776695       3.93283010      -3.00000000       122.977547       1.57079816    
   2.50000000       4.33012676      -2.00000000       122.993492       1.57079792    
   2.50000000       4.33012676      -1.00000000       122.993492       1.57079792    
   3.01776695       3.93283010      -1.00000000       122.993492       1.57079792    
   3.01776695       3.93283010      -2.00000000       122.993492       1.57079792    
   2.50000000       4.33012676      -1.00000000       122.577957       1.57079864    
   2.50000000       4.33012676       0.00000000       122.577957       1.57079864    
   3.01776695       3.93283010       0.00000000       122.577957       1.57079864    
   3.01776695       3.93283010      -1.00000000       122.577957       1.57079864    
   3.01776695       3.93283010      -10.0000000       120.212044      -1.57079601    
   3.01776695       3.93283010      -9.00000000       120.212044      -1.57079601    
   3.53553391       3.53553391      -9.00000000       120.212044      -1.57079601    
   3.53553391       3.53553391      -10.0000000       120.212044      -1.57079601    
   3.01776695       3.93283010      -9.00000000       122.936684      -1.57079613    
   3.01776695       3.93283010      -8.00000000       122.936684      -1.57079613    
   3.53553391       3.53553391      -8.00000000       122.936684      -1.57079613    
   3.53553391       3.53553391      -9.00000000       122.936684      -1.57079613    
   3.01776695       3.93283010      -8.00000000       122.951706      -1.57079625    
   3.01776695       3.93283010      -7.00000000       122.951706      -1.57079625    
   3.53553391       3.53553391      -7.00000000       122.951706      -1.57079625    
   3.53553391       3.53553391      -8.00000000       122.951706      -1.57079625    
   3.01776695       3.93283010      -7.00000000       122.971733      -1.57079601    
   3.01776695       3.93283010      -6.00000000       122.971733      -1.57079601    
   3.53553391       3.53553391      -6.00000000       122.971733      -1.57079601    
   3.53553391       3.53553391      -7.00000000       122.971733      -1.57079601    
   3.01776695       3.93283010      -6.00000000       122.925262      -1.57079589    
   3.01776695       3.93283010      -5.00000000       122.925262      -1.57079589    
   3.53553391       3.53553391      -5.00000000       122.925262      -1.57079589    
   3.53553391       3.53553391      -6.00000000       122.925262      -1.57079589    
   3.01776695       3.93283010      -5.00000000       122.925385      -1.57079589    
   3.01776695       3.93283010      -4.00000000       122.925385      -1.57079589    
   3.53553391       3.53553391      -4.00000000       122.925385      -1.57079589    
   3.53553391       3.53553391      -5.00000000       122.925385      -1.57079589    
   3.01776695       3.93283010      -4.00000000       123.018837      -1.57079506    
   3.01776695       3.93283010      -3.00000000       123.018837      -1.57079506    
   3.53553391       3.53553391      -3.00000000       123.018837      -1.57079506    
   3.53553391       3.53553391      -4.00000000       123.018837      -1.57079506    
   3.01776695       3.93283010      -3.00000000       122.978966      -1.57079494    
   3.01776695       3.93283010      -2.00000000       122.978966      -1.57079494    
   3.53553391       3.53553391      -2.00000000       122.978966      -1.57079494    
   3.53553391       3.53553391      -3.00000000       122.978966      -1.57079494    
   3.01776695       3.93283010      -2.00000000       122.994957      -1.57079542    
   3.01776695       3.93283010      -1.00000000       122.994957      -1.57079542    
   3.53553391       3.53553391      -1.00000000       122.994957      -1.57079542    
   3.53553391       3.53553391      -2.00000000       122.994957      -1.57079542    
   3.01776695       3.93283010      -1.00000000       122.579521      -1.57079327    
   3.01776695       3.93283010       0.00000000       122.579521      -1.57079327    
   3.53553391       3.53553391       0.00000000       122.579521      -1.57079327    
   3.53553391       3.53553391      -1.00000000       122.579521      -1.57079327    
   1.29409504       4.82962894      -10.0000000       120.212479       1.57079649    
   1.29409504       4.82962894      -9.00000000       120.212479       1.57079649    
   1.89704800       4.57987785      -9.00000000       120.212479       1.57079649    
   1.89704800       4.57987785      -10.0000000       120.212479       1.57079649    
   1.29409504       4.82962894      -9.00000000       122.937141       1.57079649    
   1.29409504       4.82962894      -8.00000000       122.937141       1.57079649    
   1.89704800       4.57987785      -8.00000000       122.937141       1.57079649    
   1.89704800       4.57987785      -9.00000000       122.937141       1.57079649    
   1.29409504       4.82962894      -8.00000000       122.952362       1.57079661    
   1.29409504       4.82962894      -7.00000000       122.952362       1.57079661    
   1.89704800       4.57987785      -7.00000000       122.952362       1.57079661    
   1.89704800       4.57987785      -8.00000000       122.952362       1.57079661    
   1.29409504       4.82962894      -7.00000000       122.972313       1.57079673    
   1.29409504       4.82962894      -6.00000000       122.972313       1.57079673    
   1.89704800       4.57987785      -6.00000000       122.972313       1.57079673    
   1.89704800       4.57987785      -7.00000000       122.972313       1.57079673    
   1.29409504       4.82962894      -6.00000000       122.925407       1.57079709    
   1.29409504       4.82962894      -5.00000000       122.925407       1.57079709    
   1.89704800       4.57987785      -5.00000000       122.925407       1.57079709    
   1.89704800       4.57987785      -6.00000000       122.925407       1.57079709    
   1.29409504       4.82962894      -5.00000000       122.925705       1.57079720    
   1.29409504       4.82962894      -4.00000000       122.925705       1.57079720    
   1.89704800       4.57987785      -4.00000000       122.925705       1.57079720    
   1.89704800       4.57987785      -5.00000000       122.925705       1.57079720    
   1.29409504       4.82962894      -4.00000000       123.019272       1.57079780    
   1.29409504       4.82962894      -3.00000000       123.019272       1.57079780    
   1.89704800       4.57987785      -3.00000000       123.019272       1.57079780    