 VARIABLES="X" "Y" "Z" "abs(p) (Pa)" "angle(p) (rad)"
ZONE N=   1080,E =     600, F=FEPOINT, ET=QUADRILATERAL
   4.82962894       1.29409504      -10.0000000       1702.00610      -1.52968907    
   4.82962894       1.29409504      -9.00000000       1702.00610      -1.52968907    
   4.91481400      0.647047520      -9.00000000       1702.00610      -1.52968907    
   4.91481400      0.647047520      -10.0000000       1702.00610      -1.52968907    
   4.82962894       1.29409504      -9.00000000       2084.05103      -1.53320611    
   4.82962894       1.29409504      -8.00000000       2084.05103      -1.53320611    
   4.91481400      0.647047520      -8.00000000       2084.05103      -1.53320611    
   4.91481400      0.647047520      -9.00000000       2084.05103      -1.53320611    
   4.82962894       1.29409504      -8.00000000       3103.72192      -1.54369533    
   4.82962894       1.29409504      -7.00000000       3103.72192      -1.54369533    
   4.91481400      0.647047520      -7.00000000       3103.72192      -1.54369533    
   4.91481400      0.647047520      -8.00000000       3103.72192      -1.54369533    
   4.82962894       1.29409504      -7.00000000       4381.90527      -1.55051482    
   4.82962894       1.29409504      -6.00000000       4381.90527      -1.55051482    
   4.91481400      0.647047520      -6.00000000       4381.90527      -1.55051482    
   4.91481400      0.647047520      -7.00000000       4381.90527      -1.55051482    
   4.82962894       1.29409504      -6.00000000       5788.17578      -1.55471599    
   4.82962894       1.29409504      -5.00000000       5788.17578      -1.55471599    
   4.91481400      0.647047520      -5.00000000       5788.17578      -1.55471599    
   4.91481400      0.647047520      -6.00000000       5788.17578      -1.55471599    
   4.82962894       1.29409504      -5.00000000       7243.96191      -1.55741405    
   4.82962894       1.29409504      -4.00000000       7243.96191      -1.55741405    
   4.91481400      0.647047520      -4.00000000       7243.96191      -1.55741405    
   4.91481400      0.647047520      -5.00000000       7243.96191      -1.55741405    
   4.82962894       1.29409504      -4.00000000       8686.47559      -1.55921781    
   4.82962894       1.29409504      -3.00000000       8686.47559      -1.55921781    
   4.91481400      0.647047520      -3.00000000       8686.47559      -1.55921781    
   4.91481400      0.647047520      -4.00000000       8686.47559      -1.55921781    
   4.82962894       1.29409504      -3.00000000       10050.9053      -1.56044447    
   4.82962894       1.29409504      -2.00000000       10050.9053      -1.56044447    
   4.91481400      0.647047520      -2.00000000       10050.9053      -1.56044447    
   4.91481400      0.647047520      -3.00000000       10050.9053      -1.56044447    
   4.82962894       1.29409504      -2.00000000       11260.2900      -1.56125915    
   4.82962894       1.29409504      -1.00000000       11260.2900      -1.56125915    
   4.91481400      0.647047520      -1.00000000       11260.2900      -1.56125915    
   4.91481400      0.647047520      -2.00000000       11260.2900      -1.56125915    
   4.82962894       1.29409504      -1.00000000       12181.0664      -1.56171525    
   4.82962894       1.29409504       0.00000000       12181.0664      -1.56171525    
   4.91481400      0.647047520       0.00000000       12181.0664      -1.56171525    
   4.91481400      0.647047520      -1.00000000       12181.0664      -1.56171525    
   4.91481400      0.647047520      -10.0000000       1734.08032      -1.52977729    
   4.91481400      0.647047520      -9.00000000       1734.08032      -1.52977729    
   5.00000000       0.00000000      -9.00000000       1734.08032      -1.52977729    
   5.00000000       0.00000000      -10.0000000       1734.08032      -1.52977729    
   4.91481400      0.647047520      -9.00000000       2120.77344      -1.53324211    
   4.91481400      0.647047520      -8.00000000       2120.77344      -1.53324211    
   5.00000000       0.00000000      -8.00000000       2120.77344      -1.53324211    
   5.00000000       0.00000000      -9.00000000       2120.77344      -1.53324211    
   4.91481400      0.647047520      -8.00000000       3155.26709      -1.54369521    
   4.91481400      0.647047520      -7.00000000       3155.26709      -1.54369521    
   5.00000000       0.00000000      -7.00000000       3155.26709      -1.54369521    
   5.00000000       0.00000000      -8.00000000       3155.26709      -1.54369521    
   4.91481400      0.647047520      -7.00000000       4452.55518      -1.55050480    
   4.91481400      0.647047520      -6.00000000       4452.55518      -1.55050480    
   5.00000000       0.00000000      -6.00000000       4452.55518      -1.55050480    
   5.00000000       0.00000000      -7.00000000       4452.55518      -1.55050480    
   4.91481400      0.647047520      -6.00000000       5880.04053      -1.55470419    
   4.91481400      0.647047520      -5.00000000       5880.04053      -1.55470419    
   5.00000000       0.00000000      -5.00000000       5880.04053      -1.55470419    
   5.00000000       0.00000000      -6.00000000       5880.04053      -1.55470419    
   4.91481400      0.647047520      -5.00000000       7357.86328      -1.55740213    
   4.91481400      0.647047520      -4.00000000       7357.86328      -1.55740213    
   5.00000000       0.00000000      -4.00000000       7357.86328      -1.55740213    
   5.00000000       0.00000000      -5.00000000       7357.86328      -1.55740213    
   4.91481400      0.647047520      -4.00000000       8822.16797      -1.55920613    
   4.91481400      0.647047520      -3.00000000       8822.16797      -1.55920613    
   5.00000000       0.00000000      -3.00000000       8822.16797      -1.55920613    
   5.00000000       0.00000000      -4.00000000       8822.16797      -1.55920613    
   4.91481400      0.647047520      -3.00000000       10207.1104      -1.56043351    
   4.91481400      0.647047520      -2.00000000       10207.1104      -1.56043351    
   5.00000000       0.00000000      -2.00000000       10207.1104      -1.56043351    
   5.00000000       0.00000000      -3.00000000       10207.1104      -1.56043351    
   4.91481400      0.647047520      -2.00000000       11434.4414      -1.56124818    
   4.91481400      0.647047520      -1.00000000       11434.4414      -1.56124818    
   5.00000000       0.00000000      -1.00000000       11434.4414      -1.56124818    
   5.00000000       0.00000000      -2.00000000       11434.4414      -1.56124818    
   4.91481400      0.647047520      -1.00000000       12368.5479      -1.56170416    
   4.91481400      0.647047520       0.00000000       12368.5479      -1.56170416    
   5.00000000       0.00000000       0.00000000       12368.5479      -1.56170416    
   5.00000000       0.00000000      -1.00000000       12368.5479      -1.56170416    
   4.33012676       2.50000000      -10.0000000       1553.94324      -1.52959156    
   4.33012676       2.50000000      -9.00000000       1553.94324      -1.52959156    
   4.57987785       1.89704800      -9.00000000       1553.94324      -1.52959156    
   4.57987785       1.89704800      -10.0000000       1553.94324      -1.52959156    
   4.33012676       2.50000000      -9.00000000       1905.30176      -1.53316557    
   4.33012676       2.50000000      -8.00000000       1905.30176      -1.53316557    
   4.57987785       1.89704800      -8.00000000       1905.30176      -1.53316557    
   4.57987785       1.89704800      -9.00000000       1905.30176      -1.53316557    
   4.33012676       2.50000000      -8.00000000       2840.66040      -1.54369640    
   4.33012676       2.50000000      -7.00000000       2840.66040      -1.54369640    
   4.57987785       1.89704800      -7.00000000       2840.66040      -1.54369640    
   4.57987785       1.89704800      -8.00000000       2840.66040      -1.54369640    
   4.33012676       2.50000000      -7.00000000       4012.63135      -1.55052590    
   4.33012676       2.50000000      -6.00000000       4012.63135      -1.55052590    
   4.57987785       1.89704800      -6.00000000       4012.63135      -1.55052590    
   4.57987785       1.89704800      -7.00000000       4012.63135      -1.55052590    
   4.33012676       2.50000000      -6.00000000       5301.85010      -1.55472934    
   4.33012676       2.50000000      -5.00000000       5301.85010      -1.55472934    
   4.57987785       1.89704800      -5.00000000       5301.85010      -1.55472934    
   4.57987785       1.89704800      -6.00000000       5301.85010      -1.55472934    
   4.33012676       2.50000000      -5.00000000       6636.38525      -1.55742729    
   4.33012676       2.50000000      -4.00000000       6636.38525      -1.55742729    
   4.57987785       1.89704800      -4.00000000       6636.38525      -1.55742729    
   4.57987785       1.89704800      -5.00000000       6636.38525      -1.55742729    
   4.33012676       2.50000000      -4.00000000       7958.81885      -1.55923033    
   4.33012676       2.50000000      -3.00000000       7958.81885      -1.55923033    
   4.57987785       1.89704800      -3.00000000       7958.81885      -1.55923033    
   4.57987785       1.89704800      -4.00000000       7958.81885      -1.55923033    
   4.33012676       2.50000000      -3.00000000       9209.74219      -1.56045663    
   4.33012676       2.50000000      -2.00000000       9209.74219      -1.56045663    
   4.57987785       1.89704800      -2.00000000       9209.74219      -1.56045663    
   4.57987785       1.89704800      -3.00000000       9209.74219      -1.56045663    
   4.33012676       2.50000000      -2.00000000       10318.7783      -1.56127131    
   4.33012676       2.50000000      -1.00000000       10318.7783      -1.56127131    
   4.57987785       1.89704800      -1.00000000       10318.7783      -1.56127131    
   4.57987785       1.89704800      -2.00000000       10318.7783      -1.56127131    
   4.33012676       2.50000000      -1.00000000       11163.4756      -1.56172752    
   4.33012676       2.50000000       0.00000000       11163.4756      -1.56172752    
   4.57987785       1.89704800       0.00000000       11163.4756      -1.56172752    
   4.57987785       1.89704800      -1.00000000       11163.4756      -1.56172752    
   4.57987785       1.89704800      -10.0000000       1647.97742      -1.52986717    
   4.57987785       1.89704800      -9.00000000       1647.97742      -1.52986717    
   4.82962894       1.29409504      -9.00000000       1647.97742      -1.52986717    
   4.82962894       1.29409504      -10.0000000       1647.97742      -1.52986717    
   4.57987785       1.89704800      -9.00000000       2012.96790      -1.53327990    
   4.57987785       1.89704800      -8.00000000       2012.96790      -1.53327990    
   4.82962894       1.29409504      -8.00000000       2012.96790      -1.53327990    
   4.82962894       1.29409504      -9.00000000       2012.96790      -1.53327990    
   4.57987785       1.89704800      -8.00000000       2991.78491      -1.54369485    
   4.57987785       1.89704800      -7.00000000       2991.78491      -1.54369485    
   4.82962894       1.29409504      -7.00000000       2991.78491      -1.54369485    
   4.82962894       1.29409504      -8.00000000       2991.78491      -1.54369485    
   4.57987785       1.89704800      -7.00000000       4219.77051      -1.55049419    
   4.57987785       1.89704800      -6.00000000       4219.77051      -1.55049419    
   4.82962894       1.29409504      -6.00000000       4219.77051      -1.55049419    
   4.82962894       1.29409504      -7.00000000       4219.77051      -1.55049419    
   4.57987785       1.89704800      -6.00000000       5571.19092      -1.55469155    
   4.57987785       1.89704800      -5.00000000       5571.19092      -1.55469155    
   4.82962894       1.29409504      -5.00000000       5571.19092      -1.55469155    
   4.82962894       1.29409504      -6.00000000       5571.19092      -1.55469155    
   4.57987785       1.89704800      -5.00000000       6970.35254      -1.55738962    
   4.57987785       1.89704800      -4.00000000       6970.35254      -1.55738962    
   4.82962894       1.29409504      -4.00000000       6970.35254      -1.55738962    
   4.82962894       1.29409504      -5.00000000       6970.35254      -1.55738962    
   4.57987785       1.89704800      -4.00000000       8356.64551      -1.55919421    
   4.57987785       1.89704800      -3.00000000       8356.64551      -1.55919421    
   4.82962894       1.29409504      -3.00000000       8356.64551      -1.55919421    
   4.82962894       1.29409504      -4.00000000       8356.64551      -1.55919421    
   4.57987785       1.89704800      -3.00000000       9667.72363      -1.56042171    
   4.57987785       1.89704800      -2.00000000       9667.72363      -1.56042171    
   4.82962894       1.29409504      -2.00000000       9667.72363      -1.56042171    
   4.82962894       1.29409504      -3.00000000       9667.72363      -1.56042171    
   4.57987785       1.89704800      -2.00000000       10829.3604      -1.56123674    
   4.57987785       1.89704800      -1.00000000       10829.3604      -1.56123674    
   4.82962894       1.29409504      -1.00000000       10829.3604      -1.56123674    
   4.82962894       1.29409504      -2.00000000       10829.3604      -1.56123674    
   4.57987785       1.89704800      -1.00000000       11713.1445      -1.56169260    
   4.57987785       1.89704800       0.00000000       11713.1445      -1.56169260    
   4.82962894       1.29409504       0.00000000       11713.1445      -1.56169260    
   4.82962894       1.29409504      -1.00000000       11713.1445      -1.56169260    
   3.53553391       3.53553391      -10.0000000       1299.98279      -1.52946353    
   3.53553391       3.53553391      -9.00000000       1299.98279      -1.52946353    
   3.93283010       3.01776695      -9.00000000       1299.98279      -1.52946353    
   3.93283010       3.01776695      -10.0000000       1299.98279      -1.52946353    
   3.53553391       3.53553391      -9.00000000       1596.71228      -1.53311312    
   3.53553391       3.53553391      -8.00000000       1596.71228      -1.53311312    
   3.93283010       3.01776695      -8.00000000       1596.71228      -1.53311312    
   3.93283010       3.01776695      -9.00000000       1596.71228      -1.53311312    
   3.53553391       3.53553391      -8.00000000       2384.01831      -1.54369700    
   3.53553391       3.53553391      -7.00000000       2384.01831      -1.54369700    
   3.93283010       3.01776695      -7.00000000       2384.01831      -1.54369700    
   3.93283010       3.01776695      -8.00000000       2384.01831      -1.54369700    
   3.53553391       3.53553391      -7.00000000       3369.90601      -1.55054080    
   3.53553391       3.53553391      -6.00000000       3369.90601      -1.55054080    
   3.93283010       3.01776695      -6.00000000       3369.90601      -1.55054080    
   3.93283010       3.01776695      -7.00000000       3369.90601      -1.55054080    
   3.53553391       3.53553391      -6.00000000       4454.21875      -1.55474687    
   3.53553391       3.53553391      -5.00000000       4454.21875      -1.55474687    
   3.93283010       3.01776695      -5.00000000       4454.21875      -1.55474687    
   3.93283010       3.01776695      -6.00000000       4454.21875      -1.55474687    
   3.53553391       3.53553391      -5.00000000       5576.54883      -1.55744457    
   3.53553391       3.53553391      -4.00000000       5576.54883      -1.55744457    
   3.93283010       3.01776695      -4.00000000       5576.54883      -1.55744457    
   3.93283010       3.01776695      -5.00000000       5576.54883      -1.55744457    
   3.53553391       3.53553391      -4.00000000       6688.78174      -1.55924702    
   3.53553391       3.53553391      -3.00000000       6688.78174      -1.55924702    
   3.93283010       3.01776695      -3.00000000       6688.78174      -1.55924702    
   3.93283010       3.01776695      -4.00000000       6688.78174      -1.55924702    
   3.53553391       3.53553391      -3.00000000       7740.95361      -1.56047261    
   3.53553391       3.53553391      -2.00000000       7740.95361      -1.56047261    
   3.93283010       3.01776695      -2.00000000       7740.95361      -1.56047261    
   3.93283010       3.01776695      -3.00000000       7740.95361      -1.56047261    
   3.53553391       3.53553391      -2.00000000       8674.04492      -1.56128693    
   3.53553391       3.53553391      -1.00000000       8674.04492      -1.56128693    
   3.93283010       3.01776695      -1.00000000       8674.04492      -1.56128693    
   3.93283010       3.01776695      -2.00000000       8674.04492      -1.56128693    
   3.53553391       3.53553391      -1.00000000       9385.10645      -1.56174362    
   3.53553391       3.53553391       0.00000000       9385.10645      -1.56174362    
   3.93283010       3.01776695       0.00000000       9385.10645      -1.56174362    
   3.93283010       3.01776695      -1.00000000       9385.10645      -1.56174362    
   3.93283010       3.01776695      -10.0000000       1449.56860      -1.52997518    
   3.93283010       3.01776695      -9.00000000       1449.56860      -1.52997518    
   4.33012676       2.50000000      -9.00000000       1449.56860      -1.52997518    
   4.33012676       2.50000000      -10.0000000       1449.56860      -1.52997518    
   3.93283010       3.01776695      -9.00000000       1767.98145      -1.53332531    
   3.93283010       3.01776695      -8.00000000       1767.98145      -1.53332531    
   4.33012676       2.50000000      -8.00000000       1767.98145      -1.53332531    
   4.33012676       2.50000000      -9.00000000       1767.98145      -1.53332531    
   3.93283010       3.01776695      -8.00000000       2624.41846      -1.54369342    
   3.93283010       3.01776695      -7.00000000       2624.41846      -1.54369342    
   4.33012676       2.50000000      -7.00000000       2624.41846      -1.54369342    
   4.33012676       2.50000000      -8.00000000       2624.41846      -1.54369342    
   3.93283010       3.01776695      -7.00000000       3699.42090      -1.55048144    
   3.93283010       3.01776695      -6.00000000       3699.42090      -1.55048144    
   4.33012676       2.50000000      -6.00000000       3699.42090      -1.55048144    
   4.33012676       2.50000000      -7.00000000       3699.42090      -1.55048144    
   3.93283010       3.01776695      -6.00000000       4882.67480      -1.55467653    
   3.93283010       3.01776695      -5.00000000       4882.67480      -1.55467653    
   4.33012676       2.50000000      -5.00000000       4882.67480      -1.55467653    
   4.33012676       2.50000000      -6.00000000       4882.67480      -1.55467653    
   3.93283010       3.01776695      -5.00000000       6107.82031      -1.55737460    
   3.93283010       3.01776695      -4.00000000       6107.82031      -1.55737460    
   4.33012676       2.50000000      -4.00000000       6107.82031      -1.55737460    
   4.33012676       2.50000000      -5.00000000       6107.82031      -1.55737460    
   3.93283010       3.01776695      -4.00000000       7321.63379      -1.55917990    
   3.93283010       3.01776695      -3.00000000       7321.63379      -1.55917990    
   4.33012676       2.50000000      -3.00000000       7321.63379      -1.55917990    
   4.33012676       2.50000000      -4.00000000       7321.63379      -1.55917990    
   3.93283010       3.01776695      -3.00000000       8469.50488      -1.56040788    
   3.93283010       3.01776695      -2.00000000       8469.50488      -1.56040788    
   4.33012676       2.50000000      -2.00000000       8469.50488      -1.56040788    
   4.33012676       2.50000000      -3.00000000       8469.50488      -1.56040788    
   3.93283010       3.01776695      -2.00000000       9486.26758      -1.56122303    
   3.93283010       3.01776695      -1.00000000       9486.26758      -1.56122303    
   4.33012676       2.50000000      -1.00000000       9486.26758      -1.56122303    
   4.33012676       2.50000000      -2.00000000       9486.26758      -1.56122303    
   3.93283010       3.01776695      -1.00000000       10259.4941      -1.56167877    
   3.93283010       3.01776695       0.00000000       10259.4941      -1.56167877    
   4.33012676       2.50000000       0.00000000       10259.4941      -1.56167877    
   4.33012676       2.50000000      -1.00000000       10259.4941      -1.56167877    
   2.50000000       4.33012676      -10.0000000       957.429382      -1.52925622    
   2.50000000       4.33012676      -9.00000000       957.429382      -1.52925622    
   3.01776695       3.93283010      -9.00000000       957.429382      -1.52925622    
   3.01776695       3.93283010      -10.0000000       957.429382      -1.52925622    
   2.50000000       4.33012676      -9.00000000       1179.30969      -1.53302717    
   2.50000000       4.33012676      -8.00000000       1179.30969      -1.53302717    
   3.01776695       3.93283010      -8.00000000       1179.30969      -1.53302717    
   3.01776695       3.93283010      -9.00000000       1179.30969      -1.53302717    
   2.50000000       4.33012676      -8.00000000       1764.90442      -1.54369926    
   2.50000000       4.33012676      -7.00000000       1764.90442      -1.54369926    
   3.01776695       3.93283010      -7.00000000       1764.90442      -1.54369926    
   3.01776695       3.93283010      -8.00000000       1764.90442      -1.54369926    
   2.50000000       4.33012676      -7.00000000       2497.52637      -1.55056429    
   2.50000000       4.33012676      -6.00000000       2497.52637      -1.55056429    
   3.01776695       3.93283010      -6.00000000       2497.52637      -1.55056429    
   3.01776695       3.93283010      -7.00000000       2497.52637      -1.55056429    
   2.50000000       4.33012676      -6.00000000       3303.03906      -1.55477464    
   2.50000000       4.33012676      -5.00000000       3303.03906      -1.55477464    
   3.01776695       3.93283010      -5.00000000       3303.03906      -1.55477464    
   3.01776695       3.93283010      -6.00000000       3303.03906      -1.55477464    
   2.50000000       4.33012676      -5.00000000       4136.68604      -1.55747211    
   2.50000000       4.33012676      -4.00000000       4136.68604      -1.55747211    
   3.01776695       3.93283010      -4.00000000       4136.68604      -1.55747211    
   3.01776695       3.93283010      -5.00000000       4136.68604      -1.55747211    
   2.50000000       4.33012676      -4.00000000       4962.91064      -1.55927384    
   2.50000000       4.33012676      -3.00000000       4962.91064      -1.55927384    
   3.01776695       3.93283010      -3.00000000       4962.91064      -1.55927384    
   3.01776695       3.93283010      -4.00000000       4962.91064      -1.55927384    
   2.50000000       4.33012676      -3.00000000       5744.62256      -1.56049848    
   2.50000000       4.33012676      -2.00000000       5744.62256      -1.56049848    
   3.01776695       3.93283010      -2.00000000       5744.62256      -1.56049848    
   3.01776695       3.93283010      -3.00000000       5744.62256      -1.56049848    
   2.50000000       4.33012676      -2.00000000       6438.19727      -1.56131244    
   2.50000000       4.33012676      -1.00000000       6438.19727      -1.56131244    
   3.01776695       3.93283010      -1.00000000       6438.19727      -1.56131244    
   3.01776695       3.93283010      -2.00000000       6438.19727      -1.56131244    
   2.50000000       4.33012676      -1.00000000       6967.14551      -1.56176925    
   2.50000000       4.33012676       0.00000000       6967.14551      -1.56176925    
   3.01776695       3.93283010       0.00000000       6967.14551      -1.56176925    
   3.01776695       3.93283010      -1.00000000       6967.14551      -1.56176925    
   3.01776695       3.93283010      -10.0000000       1152.37549      -1.53013039    
   3.01776695       3.93283010      -9.00000000       1152.37549      -1.53013039    
   3.53553391       3.53553391      -9.00000000       1152.37549      -1.53013039    
   3.53553391       3.53553391      -10.0000000       1152.37549      -1.53013039    
   3.01776695       3.93283010      -9.00000000       1402.51306      -1.53338957    
   3.01776695       3.93283010      -8.00000000       1402.51306      -1.53338957    
   3.53553391       3.53553391      -8.00000000       1402.51306      -1.53338957    
   3.53553391       3.53553391      -9.00000000       1402.51306      -1.53338957    
   3.01776695       3.93283010      -8.00000000       2078.20264      -1.54369187    
   3.01776695       3.93283010      -7.00000000       2078.20264      -1.54369187    
   3.53553391       3.53553391      -7.00000000       2078.20264      -1.54369187    
   3.53553391       3.53553391      -8.00000000       2078.20264      -1.54369187    
   3.01776695       3.93283010      -7.00000000       2926.95654      -1.55046272    
   3.01776695       3.93283010      -6.00000000       2926.95654      -1.55046272    
   3.53553391       3.53553391      -6.00000000       2926.95654      -1.55046272    
   3.53553391       3.53553391      -7.00000000       2926.95654      -1.55046272    
   3.01776695       3.93283010      -6.00000000       3861.40869      -1.55465472    
   3.01776695       3.93283010      -5.00000000       3861.40869      -1.55465472    
   3.53553391       3.53553391      -5.00000000       3861.40869      -1.55465472    
   3.53553391       3.53553391      -6.00000000       3861.40869      -1.55465472    
   3.01776695       3.93283010      -5.00000000       4829.04736      -1.55735302    
   3.01776695       3.93283010      -4.00000000       4829.04736      -1.55735302    
   3.53553391       3.53553391      -4.00000000       4829.04736      -1.55735302    
   3.53553391       3.53553391      -5.00000000       4829.04736      -1.55735302    
   3.01776695       3.93283010      -4.00000000       5787.65479      -1.55915916    
   3.01776695       3.93283010      -3.00000000       5787.65479      -1.55915916    
   3.53553391       3.53553391      -3.00000000       5787.65479      -1.55915916    
   3.53553391       3.53553391      -4.00000000       5787.65479      -1.55915916    
   3.01776695       3.93283010      -3.00000000       6694.09424      -1.56038785    
   3.01776695       3.93283010      -2.00000000       6694.09424      -1.56038785    
   3.53553391       3.53553391      -2.00000000       6694.09424      -1.56038785    
   3.53553391       3.53553391      -3.00000000       6694.09424      -1.56038785    
   3.01776695       3.93283010      -2.00000000       7496.70166      -1.56120336    
   3.01776695       3.93283010      -1.00000000       7496.70166      -1.56120336    
   3.53553391       3.53553391      -1.00000000       7496.70166      -1.56120336    
   3.53553391       3.53553391      -2.00000000       7496.70166      -1.56120336    
   3.01776695       3.93283010      -1.00000000       8106.68750      -1.56165862    
   3.01776695       3.93283010       0.00000000       8106.68750      -1.56165862    
   3.53553391       3.53553391       0.00000000       8106.68750      -1.56165862    
   3.53553391       3.53553391      -1.00000000       8106.68750      -1.56165862    
   1.29409504       4.82962894      -10.0000000       549.630249      -1.52876580    
   1.29409504       4.82962894      -9.00000000       549.630249      -1.52876580    
   1.89704800       4.57987785      -9.00000000       549.630249      -1.52876580    
   1.89704800       4.57987785      -10.0000000       549.630249      -1.52876580    
   1.29409504       4.82962894      -9.00000000       681.538757      -1.53282750    
   1.29409504       4.82962894      -8.00000000       681.538757      -1.53282750    
   1.89704800       4.57987785      -8.00000000       681.538757      -1.53282750    
   1.89704800       4.57987785      -9.00000000       681.538757      -1.53282750    
   1.29409504       4.82962894      -8.00000000       1025.51978      -1.54370272    
   1.29409504       4.82962894      -7.00000000       1025.51978      -1.54370272    
   1.89704800       4.57987785      -7.00000000       1025.51978      -1.54370272    
   1.89704800       4.57987785      -8.00000000       1025.51978      -1.54370272    
   1.29409504       4.82962894      -7.00000000       1454.94507      -1.55061865    
   1.29409504       4.82962894      -6.00000000       1454.94507      -1.55061865    
   1.89704800       4.57987785      -6.00000000       1454.94507      -1.55061865    
   1.89704800       4.57987785      -7.00000000       1454.94507      -1.55061865    
   1.29409504       4.82962894      -6.00000000       1926.76270      -1.55483854    
   1.29409504       4.82962894      -5.00000000       1926.76270      -1.55483854    
   1.89704800       4.57987785      -5.00000000       1926.76270      -1.55483854    
   1.89704800       4.57987785      -6.00000000       1926.76270      -1.55483854    
   1.29409504       4.82962894      -5.00000000       2414.91187      -1.55753589    
   1.29409504       4.82962894      -4.00000000       2414.91187      -1.55753589    
   1.89704800       4.57987785      -4.00000000       2414.91187      -1.55753589    
   1.89704800       4.57987785      -5.00000000       2414.91187      -1.55753589    
   1.29409504       4.82962894      -4.00000000       2898.82300      -1.55933487    
   1.29409504       4.82962894      -3.00000000       2898.82300      -1.55933487    
   1.89704800       4.57987785      -3.00000000       2898.82300      -1.55933487    