 VARIABLES="X" "Y" "Z" "abs(p) (Pa)" "angle(p) (rad)"
ZONE N=   1080,E =     600, F=FEPOINT, ET=QUADRILATERAL
   4.82962894       1.29409504      -10.0000000       405.062592      -1.47492731    
   4.82962894       1.29409504      -9.00000000       405.062592      -1.47492731    
   4.91481400      0.647047520      -9.00000000       405.062592      -1.47492731    
   4.91481400      0.647047520      -10.0000000       405.062592      -1.47492731    
   4.82962894       1.29409504      -9.00000000       510.500122      -1.48289096    
   4.82962894       1.29409504      -8.00000000       510.500122      -1.48289096    
   4.91481400      0.647047520      -8.00000000       510.500122      -1.48289096    
   4.91481400      0.647047520      -9.00000000       510.500122      -1.48289096    
   4.82962894       1.29409504      -8.00000000       575.049194      -1.48449111    
   4.82962894       1.29409504      -7.00000000       575.049194      -1.48449111    
   4.91481400      0.647047520      -7.00000000       575.049194      -1.48449111    
   4.91481400      0.647047520      -8.00000000       575.049194      -1.48449111    
   4.82962894       1.29409504      -7.00000000       623.050049      -1.48415089    
   4.82962894       1.29409504      -6.00000000       623.050049      -1.48415089    
   4.91481400      0.647047520      -6.00000000       623.050049      -1.48415089    
   4.91481400      0.647047520      -7.00000000       623.050049      -1.48415089    
   4.82962894       1.29409504      -6.00000000       662.264832      -1.48290920    
   4.82962894       1.29409504      -5.00000000       662.264832      -1.48290920    
   4.91481400      0.647047520      -5.00000000       662.264832      -1.48290920    
   4.91481400      0.647047520      -6.00000000       662.264832      -1.48290920    
   4.82962894       1.29409504      -5.00000000       696.742432      -1.48121667    
   4.82962894       1.29409504      -4.00000000       696.742432      -1.48121667    
   4.91481400      0.647047520      -4.00000000       696.742432      -1.48121667    
   4.91481400      0.647047520      -5.00000000       696.742432      -1.48121667    
   4.82962894       1.29409504      -4.00000000       729.081055      -1.47933078    
   4.82962894       1.29409504      -3.00000000       729.081055      -1.47933078    
   4.91481400      0.647047520      -3.00000000       729.081055      -1.47933078    
   4.91481400      0.647047520      -4.00000000       729.081055      -1.47933078    
   4.82962894       1.29409504      -3.00000000       761.125244      -1.47744095    
   4.82962894       1.29409504      -2.00000000       761.125244      -1.47744095    
   4.91481400      0.647047520      -2.00000000       761.125244      -1.47744095    
   4.91481400      0.647047520      -3.00000000       761.125244      -1.47744095    
   4.82962894       1.29409504      -2.00000000       795.114563      -1.47576833    
   4.82962894       1.29409504      -1.00000000       795.114563      -1.47576833    
   4.91481400      0.647047520      -1.00000000       795.114563      -1.47576833    
   4.91481400      0.647047520      -2.00000000       795.114563      -1.47576833    
   4.82962894       1.29409504      -1.00000000       833.952271      -1.47462094    
   4.82962894       1.29409504       0.00000000       833.952271      -1.47462094    
   4.91481400      0.647047520       0.00000000       833.952271      -1.47462094    
   4.91481400      0.647047520      -1.00000000       833.952271      -1.47462094    
   4.91481400      0.647047520      -10.0000000       158.738144      -1.48422420    
   4.91481400      0.647047520      -9.00000000       158.738144      -1.48422420    
   5.00000000       0.00000000      -9.00000000       158.738144      -1.48422420    
   5.00000000       0.00000000      -10.0000000       158.738144      -1.48422420    
   4.91481400      0.647047520      -9.00000000       197.205307      -1.49002552    
   4.91481400      0.647047520      -8.00000000       197.205307      -1.49002552    
   5.00000000       0.00000000      -8.00000000       197.205307      -1.49002552    
   5.00000000       0.00000000      -9.00000000       197.205307      -1.49002552    
   4.91481400      0.647047520      -8.00000000       220.214218      -1.49077129    
   4.91481400      0.647047520      -7.00000000       220.214218      -1.49077129    
   5.00000000       0.00000000      -7.00000000       220.214218      -1.49077129    
   5.00000000       0.00000000      -8.00000000       220.214218      -1.49077129    
   4.91481400      0.647047520      -7.00000000       237.326523      -1.49001348    
   4.91481400      0.647047520      -6.00000000       237.326523      -1.49001348    
   5.00000000       0.00000000      -6.00000000       237.326523      -1.49001348    
   5.00000000       0.00000000      -7.00000000       237.326523      -1.49001348    
   4.91481400      0.647047520      -6.00000000       251.263397      -1.48852980    
   4.91481400      0.647047520      -5.00000000       251.263397      -1.48852980    
   5.00000000       0.00000000      -5.00000000       251.263397      -1.48852980    
   5.00000000       0.00000000      -6.00000000       251.263397      -1.48852980    
   4.91481400      0.647047520      -5.00000000       263.540527      -1.48668194    
   4.91481400      0.647047520      -4.00000000       263.540527      -1.48668194    
   5.00000000       0.00000000      -4.00000000       263.540527      -1.48668194    
   5.00000000       0.00000000      -5.00000000       263.540527      -1.48668194    
   4.91481400      0.647047520      -4.00000000       275.049347      -1.48468590    
   4.91481400      0.647047520      -3.00000000       275.049347      -1.48468590    
   5.00000000       0.00000000      -3.00000000       275.049347      -1.48468590    
   5.00000000       0.00000000      -4.00000000       275.049347      -1.48468590    
   4.91481400      0.647047520      -3.00000000       286.432526      -1.48269463    
   4.91481400      0.647047520      -2.00000000       286.432526      -1.48269463    
   5.00000000       0.00000000      -2.00000000       286.432526      -1.48269463    
   5.00000000       0.00000000      -3.00000000       286.432526      -1.48269463    
   4.91481400      0.647047520      -2.00000000       298.516632      -1.48089528    
   4.91481400      0.647047520      -1.00000000       298.516632      -1.48089528    
   5.00000000       0.00000000      -1.00000000       298.516632      -1.48089528    
   5.00000000       0.00000000      -2.00000000       298.516632      -1.48089528    
   4.91481400      0.647047520      -1.00000000       312.147278      -1.47956944    
   4.91481400      0.647047520       0.00000000       312.147278      -1.47956944    
   5.00000000       0.00000000       0.00000000       312.147278      -1.47956944    
   5.00000000       0.00000000      -1.00000000       312.147278      -1.47956944    
   4.33012676       2.50000000      -10.0000000       941.252991      -1.47649336    
   4.33012676       2.50000000      -9.00000000       941.252991      -1.47649336    
   4.57987785       1.89704800      -9.00000000       941.252991      -1.47649336    
   4.57987785       1.89704800      -10.0000000       941.252991      -1.47649336    
   4.33012676       2.50000000      -9.00000000       1183.41296      -1.48407841    
   4.33012676       2.50000000      -8.00000000       1183.41296      -1.48407841    
   4.57987785       1.89704800      -8.00000000       1183.41296      -1.48407841    
   4.57987785       1.89704800      -9.00000000       1183.41296      -1.48407841    
   4.33012676       2.50000000      -8.00000000       1331.11914      -1.48553157    
   4.33012676       2.50000000      -7.00000000       1331.11914      -1.48553157    
   4.57987785       1.89704800      -7.00000000       1331.11914      -1.48553157    
   4.57987785       1.89704800      -8.00000000       1331.11914      -1.48553157    
   4.33012676       2.50000000      -7.00000000       1440.96497      -1.48511636    
   4.33012676       2.50000000      -6.00000000       1440.96497      -1.48511636    
   4.57987785       1.89704800      -6.00000000       1440.96497      -1.48511636    
   4.57987785       1.89704800      -7.00000000       1440.96497      -1.48511636    
   4.33012676       2.50000000      -6.00000000       1530.66284      -1.48383284    
   4.33012676       2.50000000      -5.00000000       1530.66284      -1.48383284    
   4.57987785       1.89704800      -5.00000000       1530.66284      -1.48383284    
   4.57987785       1.89704800      -6.00000000       1530.66284      -1.48383284    
   4.33012676       2.50000000      -5.00000000       1609.54211      -1.48211324    
   4.33012676       2.50000000      -4.00000000       1609.54211      -1.48211324    
   4.57987785       1.89704800      -4.00000000       1609.54211      -1.48211324    
   4.57987785       1.89704800      -5.00000000       1609.54211      -1.48211324    
   4.33012676       2.50000000      -4.00000000       1683.51917      -1.48020697    
   4.33012676       2.50000000      -3.00000000       1683.51917      -1.48020697    
   4.57987785       1.89704800      -3.00000000       1683.51917      -1.48020697    
   4.57987785       1.89704800      -4.00000000       1683.51917      -1.48020697    
   4.33012676       2.50000000      -3.00000000       1756.81140      -1.47829878    
   4.33012676       2.50000000      -2.00000000       1756.81140      -1.47829878    
   4.57987785       1.89704800      -2.00000000       1756.81140      -1.47829878    
   4.57987785       1.89704800      -3.00000000       1756.81140      -1.47829878    
   4.33012676       2.50000000      -2.00000000       1834.55554      -1.47660601    
   4.33012676       2.50000000      -1.00000000       1834.55554      -1.47660601    
   4.57987785       1.89704800      -1.00000000       1834.55554      -1.47660601    
   4.57987785       1.89704800      -2.00000000       1834.55554      -1.47660601    
   4.33012676       2.50000000      -1.00000000       1923.22607      -1.47542143    
   4.33012676       2.50000000       0.00000000       1923.22607      -1.47542143    
   4.57987785       1.89704800       0.00000000       1923.22607      -1.47542143    
   4.57987785       1.89704800      -1.00000000       1923.22607      -1.47542143    
   4.57987785       1.89704800      -10.0000000       711.710693      -1.47892928    
   4.57987785       1.89704800      -9.00000000       711.710693      -1.47892928    
   4.82962894       1.29409504      -9.00000000       711.710693      -1.47892928    
   4.82962894       1.29409504      -10.0000000       711.710693      -1.47892928    
   4.57987785       1.89704800      -9.00000000       891.468201      -1.48593736    
   4.57987785       1.89704800      -8.00000000       891.468201      -1.48593736    
   4.82962894       1.29409504      -8.00000000       891.468201      -1.48593736    
   4.82962894       1.29409504      -9.00000000       891.468201      -1.48593736    
   4.57987785       1.89704800      -8.00000000       1000.46643      -1.48716474    
   4.57987785       1.89704800      -7.00000000       1000.46643      -1.48716474    
   4.82962894       1.29409504      -7.00000000       1000.46643      -1.48716474    
   4.82962894       1.29409504      -8.00000000       1000.46643      -1.48716474    
   4.57987785       1.89704800      -7.00000000       1081.52258      -1.48663652    
   4.57987785       1.89704800      -6.00000000       1081.52258      -1.48663652    
   4.82962894       1.29409504      -6.00000000       1081.52258      -1.48663652    
   4.82962894       1.29409504      -7.00000000       1081.52258      -1.48663652    
   4.57987785       1.89704800      -6.00000000       1147.67041      -1.48528874    
   4.57987785       1.89704800      -5.00000000       1147.67041      -1.48528874    
   4.82962894       1.29409504      -5.00000000       1147.67041      -1.48528874    
   4.82962894       1.29409504      -6.00000000       1147.67041      -1.48528874    
   4.57987785       1.89704800      -5.00000000       1205.86145      -1.48352635    
   4.57987785       1.89704800      -4.00000000       1205.86145      -1.48352635    
   4.82962894       1.29409504      -4.00000000       1205.86145      -1.48352635    
   4.82962894       1.29409504      -5.00000000       1205.86145      -1.48352635    
   4.57987785       1.89704800      -4.00000000       1260.43347      -1.48158967    
   4.57987785       1.89704800      -3.00000000       1260.43347      -1.48158967    
   4.82962894       1.29409504      -3.00000000       1260.43347      -1.48158967    
   4.82962894       1.29409504      -4.00000000       1260.43347      -1.48158967    
   4.57987785       1.89704800      -3.00000000       1314.46777      -1.47965181    
   4.57987785       1.89704800      -2.00000000       1314.46777      -1.47965181    
   4.82962894       1.29409504      -2.00000000       1314.46777      -1.47965181    
   4.82962894       1.29409504      -3.00000000       1314.46777      -1.47965181    
   4.57987785       1.89704800      -2.00000000       1371.80042      -1.47792852    
   4.57987785       1.89704800      -1.00000000       1371.80042      -1.47792852    
   4.82962894       1.29409504      -1.00000000       1371.80042      -1.47792852    
   4.82962894       1.29409504      -2.00000000       1371.80042      -1.47792852    
   4.57987785       1.89704800      -1.00000000       1436.97546      -1.47669840    
   4.57987785       1.89704800       0.00000000       1436.97546      -1.47669840    
   4.82962894       1.29409504       0.00000000       1436.97546      -1.47669840    
   4.82962894       1.29409504      -1.00000000       1436.97546      -1.47669840    
   3.53553391       3.53553391      -10.0000000       1413.29712      -1.47694278    
   3.53553391       3.53553391      -9.00000000       1413.29712      -1.47694278    
   3.93283010       3.01776695      -9.00000000       1413.29712      -1.47694278    
   3.93283010       3.01776695      -10.0000000       1413.29712      -1.47694278    
   3.53553391       3.53553391      -9.00000000       1775.67749      -1.48442042    
   3.53553391       3.53553391      -8.00000000       1775.67749      -1.48442042    
   3.93283010       3.01776695      -8.00000000       1775.67749      -1.48442042    
   3.93283010       3.01776695      -9.00000000       1775.67749      -1.48442042    
   3.53553391       3.53553391      -8.00000000       1996.47839      -1.48583031    
   3.53553391       3.53553391      -7.00000000       1996.47839      -1.48583031    
   3.93283010       3.01776695      -7.00000000       1996.47839      -1.48583031    
   3.93283010       3.01776695      -8.00000000       1996.47839      -1.48583031    
   3.53553391       3.53553391      -7.00000000       2160.68091      -1.48539460    
   3.53553391       3.53553391      -6.00000000       2160.68091      -1.48539460    
   3.93283010       3.01776695      -6.00000000       2160.68091      -1.48539460    
   3.93283010       3.01776695      -7.00000000       2160.68091      -1.48539460    
   3.53553391       3.53553391      -6.00000000       2294.74927      -1.48409975    
   3.53553391       3.53553391      -5.00000000       2294.74927      -1.48409975    
   3.93283010       3.01776695      -5.00000000       2294.74927      -1.48409975    
   3.93283010       3.01776695      -6.00000000       2294.74927      -1.48409975    
   3.53553391       3.53553391      -5.00000000       2412.65308      -1.48237085    
   3.53553391       3.53553391      -4.00000000       2412.65308      -1.48237085    
   3.93283010       3.01776695      -4.00000000       2412.65308      -1.48237085    
   3.93283010       3.01776695      -5.00000000       2412.65308      -1.48237085    
   3.53553391       3.53553391      -4.00000000       2523.22925      -1.48046029    
   3.53553391       3.53553391      -3.00000000       2523.22925      -1.48046029    
   3.93283010       3.01776695      -3.00000000       2523.22925      -1.48046029    
   3.93283010       3.01776695      -4.00000000       2523.22925      -1.48046029    
   3.53553391       3.53553391      -3.00000000       2632.77100      -1.47854614    
   3.53553391       3.53553391      -2.00000000       2632.77100      -1.47854614    
   3.93283010       3.01776695      -2.00000000       2632.77100      -1.47854614    
   3.93283010       3.01776695      -3.00000000       2632.77100      -1.47854614    
   3.53553391       3.53553391      -2.00000000       2748.97681      -1.47684622    
   3.53553391       3.53553391      -1.00000000       2748.97681      -1.47684622    
   3.93283010       3.01776695      -1.00000000       2748.97681      -1.47684622    
   3.93283010       3.01776695      -2.00000000       2748.97681      -1.47684622    
   3.53553391       3.53553391      -1.00000000       2881.42236      -1.47565579    
   3.53553391       3.53553391       0.00000000       2881.42236      -1.47565579    
   3.93283010       3.01776695       0.00000000       2881.42236      -1.47565579    
   3.93283010       3.01776695      -1.00000000       2881.42236      -1.47565579    
   3.93283010       3.01776695      -10.0000000       1216.18628      -1.47823977    
   3.93283010       3.01776695      -9.00000000       1216.18628      -1.47823977    
   4.33012676       2.50000000      -9.00000000       1216.18628      -1.47823977    
   4.33012676       2.50000000      -10.0000000       1216.18628      -1.47823977    
   3.93283010       3.01776695      -9.00000000       1524.97815      -1.48541021    
   3.93283010       3.01776695      -8.00000000       1524.97815      -1.48541021    
   4.33012676       2.50000000      -8.00000000       1524.97815      -1.48541021    
   4.33012676       2.50000000      -9.00000000       1524.97815      -1.48541021    
   3.93283010       3.01776695      -8.00000000       1712.53992      -1.48669910    
   3.93283010       3.01776695      -7.00000000       1712.53992      -1.48669910    
   4.33012676       2.50000000      -7.00000000       1712.53992      -1.48669910    
   4.33012676       2.50000000      -8.00000000       1712.53992      -1.48669910    
   3.93283010       3.01776695      -7.00000000       1852.02209      -1.48620403    
   3.93283010       3.01776695      -6.00000000       1852.02209      -1.48620403    
   4.33012676       2.50000000      -6.00000000       1852.02209      -1.48620403    
   4.33012676       2.50000000      -7.00000000       1852.02209      -1.48620403    
   3.93283010       3.01776695      -6.00000000       1965.86438      -1.48487318    
   3.93283010       3.01776695      -5.00000000       1965.86438      -1.48487318    
   4.33012676       2.50000000      -5.00000000       1965.86438      -1.48487318    
   4.33012676       2.50000000      -6.00000000       1965.86438      -1.48487318    
   3.93283010       3.01776695      -5.00000000       2066.00317      -1.48312330    
   3.93283010       3.01776695      -4.00000000       2066.00317      -1.48312330    
   4.33012676       2.50000000      -4.00000000       2066.00317      -1.48312330    
   4.33012676       2.50000000      -5.00000000       2066.00317      -1.48312330    
   3.93283010       3.01776695      -4.00000000       2159.92041      -1.48119509    
   3.93283010       3.01776695      -3.00000000       2159.92041      -1.48119509    
   4.33012676       2.50000000      -3.00000000       2159.92041      -1.48119509    
   4.33012676       2.50000000      -4.00000000       2159.92041      -1.48119509    
   3.93283010       3.01776695      -3.00000000       2252.92334      -1.47926641    
   3.93283010       3.01776695      -2.00000000       2252.92334      -1.47926641    
   4.33012676       2.50000000      -2.00000000       2252.92334      -1.47926641    
   4.33012676       2.50000000      -3.00000000       2252.92334      -1.47926641    
   3.93283010       3.01776695      -2.00000000       2351.59766      -1.47755003    
   3.93283010       3.01776695      -1.00000000       2351.59766      -1.47755003    
   4.33012676       2.50000000      -1.00000000       2351.59766      -1.47755003    
   4.33012676       2.50000000      -2.00000000       2351.59766      -1.47755003    
   3.93283010       3.01776695      -1.00000000       2463.87695      -1.47633350    
   3.93283010       3.01776695       0.00000000       2463.87695      -1.47633350    
   4.33012676       2.50000000       0.00000000       2463.87695      -1.47633350    
   4.33012676       2.50000000      -1.00000000       2463.87695      -1.47633350    
   2.50000000       4.33012676      -10.0000000       1789.02795      -1.47717905    
   2.50000000       4.33012676      -9.00000000       1789.02795      -1.47717905    
   3.01776695       3.93283010      -9.00000000       1789.02795      -1.47717905    
   3.01776695       3.93283010      -10.0000000       1789.02795      -1.47717905    
   2.50000000       4.33012676      -9.00000000       2246.93311      -1.48460042    
   2.50000000       4.33012676      -8.00000000       2246.93311      -1.48460042    
   3.01776695       3.93283010      -8.00000000       2246.93311      -1.48460042    
   3.01776695       3.93283010      -9.00000000       2246.93311      -1.48460042    
   2.50000000       4.33012676      -8.00000000       2525.77905      -1.48598874    
   2.50000000       4.33012676      -7.00000000       2525.77905      -1.48598874    
   3.01776695       3.93283010      -7.00000000       2525.77905      -1.48598874    
   3.01776695       3.93283010      -8.00000000       2525.77905      -1.48598874    
   2.50000000       4.33012676      -7.00000000       2733.14844      -1.48554146    
   2.50000000       4.33012676      -6.00000000       2733.14844      -1.48554146    
   3.01776695       3.93283010      -6.00000000       2733.14844      -1.48554146    
   3.01776695       3.93283010      -7.00000000       2733.14844      -1.48554146    
   2.50000000       4.33012676      -6.00000000       2902.44653      -1.48423982    
   2.50000000       4.33012676      -5.00000000       2902.44653      -1.48423982    
   3.01776695       3.93283010      -5.00000000       2902.44653      -1.48423982    
   3.01776695       3.93283010      -6.00000000       2902.44653      -1.48423982    
   2.50000000       4.33012676      -5.00000000       3051.34399      -1.48250759    
   2.50000000       4.33012676      -4.00000000       3051.34399      -1.48250759    
   3.01776695       3.93283010      -4.00000000       3051.34399      -1.48250759    
   3.01776695       3.93283010      -5.00000000       3051.34399      -1.48250759    
   2.50000000       4.33012676      -4.00000000       3190.99243      -1.48059344    
   2.50000000       4.33012676      -3.00000000       3190.99243      -1.48059344    
   3.01776695       3.93283010      -3.00000000       3190.99243      -1.48059344    
   3.01776695       3.93283010      -4.00000000       3190.99243      -1.48059344    
   2.50000000       4.33012676      -3.00000000       3329.31909      -1.47867692    
   2.50000000       4.33012676      -2.00000000       3329.31909      -1.47867692    
   3.01776695       3.93283010      -2.00000000       3329.31909      -1.47867692    
   3.01776695       3.93283010      -3.00000000       3329.31909      -1.47867692    
   2.50000000       4.33012676      -2.00000000       3476.05981      -1.47697389    
   2.50000000       4.33012676      -1.00000000       3476.05981      -1.47697389    
   3.01776695       3.93283010      -1.00000000       3476.05981      -1.47697389    
   3.01776695       3.93283010      -2.00000000       3476.05981      -1.47697389    
   2.50000000       4.33012676      -1.00000000       3643.26245      -1.47577870    
   2.50000000       4.33012676       0.00000000       3643.26245      -1.47577870    
   3.01776695       3.93283010       0.00000000       3643.26245      -1.47577870    
   3.01776695       3.93283010      -1.00000000       3643.26245      -1.47577870    
   3.01776695       3.93283010      -10.0000000       1637.78101      -1.47793925    
   3.01776695       3.93283010      -9.00000000       1637.78101      -1.47793925    
   3.53553391       3.53553391      -9.00000000       1637.78101      -1.47793925    
   3.53553391       3.53553391      -10.0000000       1637.78101      -1.47793925    
   3.01776695       3.93283010      -9.00000000       2054.56445      -1.48517990    
   3.01776695       3.93283010      -8.00000000       2054.56445      -1.48517990    
   3.53553391       3.53553391      -8.00000000       2054.56445      -1.48517990    
   3.53553391       3.53553391      -9.00000000       2054.56445      -1.48517990    
   3.01776695       3.93283010      -8.00000000       2307.90356      -1.48649812    
   3.01776695       3.93283010      -7.00000000       2307.90356      -1.48649812    
   3.53553391       3.53553391      -7.00000000       2307.90356      -1.48649812    
   3.53553391       3.53553391      -8.00000000       2307.90356      -1.48649812    
   3.01776695       3.93283010      -7.00000000       2496.30444      -1.48601639    
   3.01776695       3.93283010      -6.00000000       2496.30444      -1.48601639    
   3.53553391       3.53553391      -6.00000000       2496.30444      -1.48601639    
   3.53553391       3.53553391      -7.00000000       2496.30444      -1.48601639    
   3.01776695       3.93283010      -6.00000000       2650.08521      -1.48469400    
   3.01776695       3.93283010      -5.00000000       2650.08521      -1.48469400    
   3.53553391       3.53553391      -5.00000000       2650.08521      -1.48469400    
   3.53553391       3.53553391      -6.00000000       2650.08521      -1.48469400    
   3.01776695       3.93283010      -5.00000000       2785.35620      -1.48294842    
   3.01776695       3.93283010      -4.00000000       2785.35620      -1.48294842    
   3.53553391       3.53553391      -4.00000000       2785.35620      -1.48294842    
   3.53553391       3.53553391      -5.00000000       2785.35620      -1.48294842    
   3.01776695       3.93283010      -4.00000000       2912.20850      -1.48102427    
   3.01776695       3.93283010      -3.00000000       2912.20850      -1.48102427    
   3.53553391       3.53553391      -3.00000000       2912.20850      -1.48102427    
   3.53553391       3.53553391      -4.00000000       2912.20850      -1.48102427    
   3.01776695       3.93283010      -3.00000000       3037.84839      -1.47909975    
   3.01776695       3.93283010      -2.00000000       3037.84839      -1.47909975    
   3.53553391       3.53553391      -2.00000000       3037.84839      -1.47909975    
   3.53553391       3.53553391      -3.00000000       3037.84839      -1.47909975    
   3.01776695       3.93283010      -2.00000000       3171.13623      -1.47738600    
   3.01776695       3.93283010      -1.00000000       3171.13623      -1.47738600    
   3.53553391       3.53553391      -1.00000000       3171.13623      -1.47738600    
   3.53553391       3.53553391      -2.00000000       3171.13623      -1.47738600    
   3.01776695       3.93283010      -1.00000000       3322.86792      -1.47617567    
   3.01776695       3.93283010       0.00000000       3322.86792      -1.47617567    
   3.53553391       3.53553391       0.00000000       3322.86792      -1.47617567    
   3.53553391       3.53553391      -1.00000000       3322.86792      -1.47617567    
   1.29409504       4.82962894      -10.0000000       2042.84045      -1.47734284    
   1.29409504       4.82962894      -9.00000000       2042.84045      -1.47734284    
   1.89704800       4.57987785      -9.00000000       2042.84045      -1.47734284    
   1.89704800       4.57987785      -10.0000000       2042.84045      -1.47734284    
   1.29409504       4.82962894      -9.00000000       2565.06567      -1.48472476    
   1.29409504       4.82962894      -8.00000000       2565.06567      -1.48472476    
   1.89704800       4.57987785      -8.00000000       2565.06567      -1.48472476    
   1.89704800       4.57987785      -9.00000000       2565.06567      -1.48472476    
   1.29409504       4.82962894      -8.00000000       2882.95044      -1.48609805    
   1.29409504       4.82962894      -7.00000000       2882.95044      -1.48609805    
   1.89704800       4.57987785      -7.00000000       2882.95044      -1.48609805    
   1.89704800       4.57987785      -8.00000000       2882.95044      -1.48609805    
   1.29409504       4.82962894      -7.00000000       3119.35596      -1.48564243    
   1.29409504       4.82962894      -6.00000000       3119.35596      -1.48564243    
   1.89704800       4.57987785      -6.00000000       3119.35596      -1.48564243    
   1.89704800       4.57987785      -7.00000000       3119.35596      -1.48564243    
   1.29409504       4.82962894      -6.00000000       3312.35498      -1.48433721    
   1.29409504       4.82962894      -5.00000000       3312.35498      -1.48433721    
   1.89704800       4.57987785      -5.00000000       3312.35498      -1.48433721    
   1.89704800       4.57987785      -6.00000000       3312.35498      -1.48433721    
   1.29409504       4.82962894      -5.00000000       3482.09644      -1.48260224    
   1.29409504       4.82962894      -4.00000000       3482.09644      -1.48260224    
   1.89704800       4.57987785      -4.00000000       3482.09644      -1.48260224    
   1.89704800       4.57987785      -5.00000000       3482.09644      -1.48260224    
   1.29409504       4.82962894      -4.00000000       3641.28589      -1.48068571    
   1.29409504       4.82962894      -3.00000000       3641.28589      -1.48068571    
   1.89704800       4.57987785      -3.00000000       3641.28589      -1.48068571    