 VARIABLES="X" "Y" "Z" "abs(p) (Pa)" "angle(p) (rad)"
ZONE N=   1080,E =     600, F=FEPOINT, ET=QUADRILATERAL
   4.82962894       1.29409504      -10.0000000       635.118713      -1.57052112    
   4.82962894       1.29409504      -9.00000000       635.118713      -1.57052112    
   4.91481400      0.647047520      -9.00000000       635.118713      -1.57052112    
   4.91481400      0.647047520      -10.0000000       635.118713      -1.57052112    
   4.82962894       1.29409504      -9.00000000       797.814148      -1.57055664    
   4.82962894       1.29409504      -8.00000000       797.814148      -1.57055664    
   4.91481400      0.647047520      -8.00000000       797.814148      -1.57055664    
   4.91481400      0.647047520      -9.00000000       797.814148      -1.57055664    
   4.82962894       1.29409504      -8.00000000       889.870667      -1.57057035    
   4.82962894       1.29409504      -7.00000000       889.870667      -1.57057035    
   4.91481400      0.647047520      -7.00000000       889.870667      -1.57057035    
   4.91481400      0.647047520      -8.00000000       889.870667      -1.57057035    
   4.82962894       1.29409504      -7.00000000       952.084167      -1.57057774    
   4.82962894       1.29409504      -6.00000000       952.084167      -1.57057774    
   4.91481400      0.647047520      -6.00000000       952.084167      -1.57057774    
   4.91481400      0.647047520      -7.00000000       952.084167      -1.57057774    
   4.82962894       1.29409504      -6.00000000       996.700684      -1.57058203    
   4.82962894       1.29409504      -5.00000000       996.700684      -1.57058203    
   4.91481400      0.647047520      -5.00000000       996.700684      -1.57058203    
   4.91481400      0.647047520      -6.00000000       996.700684      -1.57058203    
   4.82962894       1.29409504      -5.00000000       1029.65442      -1.57058465    
   4.82962894       1.29409504      -4.00000000       1029.65442      -1.57058465    
   4.91481400      0.647047520      -4.00000000       1029.65442      -1.57058465    
   4.91481400      0.647047520      -5.00000000       1029.65442      -1.57058465    
   4.82962894       1.29409504      -4.00000000       1054.26514      -1.57058632    
   4.82962894       1.29409504      -3.00000000       1054.26514      -1.57058632    
   4.91481400      0.647047520      -3.00000000       1054.26514      -1.57058632    
   4.91481400      0.647047520      -4.00000000       1054.26514      -1.57058632    
   4.82962894       1.29409504      -3.00000000       1072.52747      -1.57058716    
   4.82962894       1.29409504      -2.00000000       1072.52747      -1.57058716    
   4.91481400      0.647047520      -2.00000000       1072.52747      -1.57058716    
   4.91481400      0.647047520      -3.00000000       1072.52747      -1.57058716    
   4.82962894       1.29409504      -2.00000000       1085.82068      -1.57058752    
   4.82962894       1.29409504      -1.00000000       1085.82068      -1.57058752    
   4.91481400      0.647047520      -1.00000000       1085.82068      -1.57058752    
   4.91481400      0.647047520      -2.00000000       1085.82068      -1.57058752    
   4.82962894       1.29409504      -1.00000000       1094.99365      -1.57058752    
   4.82962894       1.29409504       0.00000000       1094.99365      -1.57058752    
   4.91481400      0.647047520       0.00000000       1094.99365      -1.57058752    
   4.91481400      0.647047520      -1.00000000       1094.99365      -1.57058752    
   4.91481400      0.647047520      -10.0000000       644.694702      -1.57052064    
   4.91481400      0.647047520      -9.00000000       644.694702      -1.57052064    
   5.00000000       0.00000000      -9.00000000       644.694702      -1.57052064    
   5.00000000       0.00000000      -10.0000000       644.694702      -1.57052064    
   4.91481400      0.647047520      -9.00000000       810.032410      -1.57055628    
   4.91481400      0.647047520      -8.00000000       810.032410      -1.57055628    
   5.00000000       0.00000000      -8.00000000       810.032410      -1.57055628    
   5.00000000       0.00000000      -9.00000000       810.032410      -1.57055628    
   4.91481400      0.647047520      -8.00000000       903.615906      -1.57057011    
   4.91481400      0.647047520      -7.00000000       903.615906      -1.57057011    
   5.00000000       0.00000000      -7.00000000       903.615906      -1.57057011    
   5.00000000       0.00000000      -8.00000000       903.615906      -1.57057011    
   4.91481400      0.647047520      -7.00000000       966.860535      -1.57057750    
   4.91481400      0.647047520      -6.00000000       966.860535      -1.57057750    
   5.00000000       0.00000000      -6.00000000       966.860535      -1.57057750    
   5.00000000       0.00000000      -7.00000000       966.860535      -1.57057750    
   4.91481400      0.647047520      -6.00000000       1012.21588      -1.57058191    
   4.91481400      0.647047520      -5.00000000       1012.21588      -1.57058191    
   5.00000000       0.00000000      -5.00000000       1012.21588      -1.57058191    
   5.00000000       0.00000000      -6.00000000       1012.21588      -1.57058191    
   4.91481400      0.647047520      -5.00000000       1045.71985      -1.57058454    
   4.91481400      0.647047520      -4.00000000       1045.71985      -1.57058454    
   5.00000000       0.00000000      -4.00000000       1045.71985      -1.57058454    
   5.00000000       0.00000000      -5.00000000       1045.71985      -1.57058454    
   4.91481400      0.647047520      -4.00000000       1070.73596      -1.57058609    
   4.91481400      0.647047520      -3.00000000       1070.73596      -1.57058609    
   5.00000000       0.00000000      -3.00000000       1070.73596      -1.57058609    
   5.00000000       0.00000000      -4.00000000       1070.73596      -1.57058609    
   4.91481400      0.647047520      -3.00000000       1089.30334      -1.57058692    
   4.91481400      0.647047520      -2.00000000       1089.30334      -1.57058692    
   5.00000000       0.00000000      -2.00000000       1089.30334      -1.57058692    
   5.00000000       0.00000000      -3.00000000       1089.30334      -1.57058692    
   4.91481400      0.647047520      -2.00000000       1102.81628      -1.57058728    
   4.91481400      0.647047520      -1.00000000       1102.81628      -1.57058728    
   5.00000000       0.00000000      -1.00000000       1102.81628      -1.57058728    
   5.00000000       0.00000000      -2.00000000       1102.81628      -1.57058728    
   4.91481400      0.647047520      -1.00000000       1112.15186      -1.57058728    
   4.91481400      0.647047520       0.00000000       1112.15186      -1.57058728    
   5.00000000       0.00000000       0.00000000       1112.15186      -1.57058728    
   5.00000000       0.00000000      -1.00000000       1112.15186      -1.57058728    
   4.33012676       2.50000000      -10.0000000       582.260376      -1.57052147    
   4.33012676       2.50000000      -9.00000000       582.260376      -1.57052147    
   4.57987785       1.89704800      -9.00000000       582.260376      -1.57052147    
   4.57987785       1.89704800      -10.0000000       582.260376      -1.57052147    
   4.33012676       2.50000000      -9.00000000       731.224670      -1.57055700    
   4.33012676       2.50000000      -8.00000000       731.224670      -1.57055700    
   4.57987785       1.89704800      -8.00000000       731.224670      -1.57055700    
   4.57987785       1.89704800      -9.00000000       731.224670      -1.57055700    
   4.33012676       2.50000000      -8.00000000       815.483765      -1.57057071    
   4.33012676       2.50000000      -7.00000000       815.483765      -1.57057071    
   4.57987785       1.89704800      -7.00000000       815.483765      -1.57057071    
   4.57987785       1.89704800      -8.00000000       815.483765      -1.57057071    
   4.33012676       2.50000000      -7.00000000       872.425781      -1.57057798    
   4.33012676       2.50000000      -6.00000000       872.425781      -1.57057798    
   4.57987785       1.89704800      -6.00000000       872.425781      -1.57057798    
   4.57987785       1.89704800      -7.00000000       872.425781      -1.57057798    
   4.33012676       2.50000000      -6.00000000       913.258118      -1.57058227    
   4.33012676       2.50000000      -5.00000000       913.258118      -1.57058227    
   4.57987785       1.89704800      -5.00000000       913.258118      -1.57058227    
   4.57987785       1.89704800      -6.00000000       913.258118      -1.57058227    
   4.33012676       2.50000000      -5.00000000       943.422485      -1.57058489    
   4.33012676       2.50000000      -4.00000000       943.422485      -1.57058489    
   4.57987785       1.89704800      -4.00000000       943.422485      -1.57058489    
   4.57987785       1.89704800      -5.00000000       943.422485      -1.57058489    
   4.33012676       2.50000000      -4.00000000       965.946655      -1.57058644    
   4.33012676       2.50000000      -3.00000000       965.946655      -1.57058644    
   4.57987785       1.89704800      -3.00000000       965.946655      -1.57058644    
   4.57987785       1.89704800      -4.00000000       965.946655      -1.57058644    
   4.33012676       2.50000000      -3.00000000       982.661194      -1.57058740    
   4.33012676       2.50000000      -2.00000000       982.661194      -1.57058740    
   4.57987785       1.89704800      -2.00000000       982.661194      -1.57058740    
   4.57987785       1.89704800      -3.00000000       982.661194      -1.57058740    
   4.33012676       2.50000000      -2.00000000       994.827271      -1.57058775    
   4.33012676       2.50000000      -1.00000000       994.827271      -1.57058775    
   4.57987785       1.89704800      -1.00000000       994.827271      -1.57058775    
   4.57987785       1.89704800      -2.00000000       994.827271      -1.57058775    
   4.33012676       2.50000000      -1.00000000       1003.21405      -1.57058775    
   4.33012676       2.50000000       0.00000000       1003.21405      -1.57058775    
   4.57987785       1.89704800       0.00000000       1003.21405      -1.57058775    
   4.57987785       1.89704800      -1.00000000       1003.21405      -1.57058775    
   4.57987785       1.89704800      -10.0000000       610.336548      -1.57052028    
   4.57987785       1.89704800      -9.00000000       610.336548      -1.57052028    
   4.82962894       1.29409504      -9.00000000       610.336548      -1.57052028    
   4.82962894       1.29409504      -10.0000000       610.336548      -1.57052028    
   4.57987785       1.89704800      -9.00000000       767.049316      -1.57055593    
   4.57987785       1.89704800      -8.00000000       767.049316      -1.57055593    
   4.82962894       1.29409504      -8.00000000       767.049316      -1.57055593    
   4.82962894       1.29409504      -9.00000000       767.049316      -1.57055593    
   4.57987785       1.89704800      -8.00000000       855.781860      -1.57056987    
   4.57987785       1.89704800      -7.00000000       855.781860      -1.57056987    
   4.82962894       1.29409504      -7.00000000       855.781860      -1.57056987    
   4.82962894       1.29409504      -8.00000000       855.781860      -1.57056987    
   4.57987785       1.89704800      -7.00000000       915.747253      -1.57057726    
   4.57987785       1.89704800      -6.00000000       915.747253      -1.57057726    
   4.82962894       1.29409504      -6.00000000       915.747253      -1.57057726    
   4.82962894       1.29409504      -7.00000000       915.747253      -1.57057726    
   4.57987785       1.89704800      -6.00000000       958.753174      -1.57058156    
   4.57987785       1.89704800      -5.00000000       958.753174      -1.57058156    
   4.82962894       1.29409504      -5.00000000       958.753174      -1.57058156    
   4.82962894       1.29409504      -6.00000000       958.753174      -1.57058156    
   4.57987785       1.89704800      -5.00000000       990.518677      -1.57058418    
   4.57987785       1.89704800      -4.00000000       990.518677      -1.57058418    
   4.82962894       1.29409504      -4.00000000       990.518677      -1.57058418    
   4.82962894       1.29409504      -5.00000000       990.518677      -1.57058418    
   4.57987785       1.89704800      -4.00000000       1014.23767      -1.57058585    
   4.57987785       1.89704800      -3.00000000       1014.23767      -1.57058585    
   4.82962894       1.29409504      -3.00000000       1014.23767      -1.57058585    
   4.82962894       1.29409504      -4.00000000       1014.23767      -1.57058585    
   4.57987785       1.89704800      -3.00000000       1031.84277      -1.57058668    
   4.57987785       1.89704800      -2.00000000       1031.84277      -1.57058668    
   4.82962894       1.29409504      -2.00000000       1031.84277      -1.57058668    
   4.82962894       1.29409504      -3.00000000       1031.84277      -1.57058668    
   4.57987785       1.89704800      -2.00000000       1044.65662      -1.57058716    
   4.57987785       1.89704800      -1.00000000       1044.65662      -1.57058716    
   4.82962894       1.29409504      -1.00000000       1044.65662      -1.57058716    
   4.82962894       1.29409504      -2.00000000       1044.65662      -1.57058716    
   4.57987785       1.89704800      -1.00000000       1053.51965      -1.57058704    
   4.57987785       1.89704800       0.00000000       1053.51965      -1.57058704    
   4.82962894       1.29409504       0.00000000       1053.51965      -1.57058704    
   4.82962894       1.29409504      -1.00000000       1053.51965      -1.57058704    
   3.53553391       3.53553391      -10.0000000       489.722595      -1.57052219    
   3.53553391       3.53553391      -9.00000000       489.722595      -1.57052219    
   3.93283010       3.01776695      -9.00000000       489.722595      -1.57052219    
   3.93283010       3.01776695      -10.0000000       489.722595      -1.57052219    
   3.53553391       3.53553391      -9.00000000       614.804626      -1.57055736    
   3.53553391       3.53553391      -8.00000000       614.804626      -1.57055736    
   3.93283010       3.01776695      -8.00000000       614.804626      -1.57055736    
   3.93283010       3.01776695      -9.00000000       614.804626      -1.57055736    
   3.53553391       3.53553391      -8.00000000       685.520630      -1.57057106    
   3.53553391       3.53553391      -7.00000000       685.520630      -1.57057106    
   3.93283010       3.01776695      -7.00000000       685.520630      -1.57057106    
   3.93283010       3.01776695      -8.00000000       685.520630      -1.57057106    
   3.53553391       3.53553391      -7.00000000       733.312622      -1.57057834    
   3.53553391       3.53553391      -6.00000000       733.312622      -1.57057834    
   3.93283010       3.01776695      -6.00000000       733.312622      -1.57057834    
   3.93283010       3.01776695      -7.00000000       733.312622      -1.57057834    
   3.53553391       3.53553391      -6.00000000       767.580505      -1.57058263    
   3.53553391       3.53553391      -5.00000000       767.580505      -1.57058263    
   3.93283010       3.01776695      -5.00000000       767.580505      -1.57058263    
   3.93283010       3.01776695      -6.00000000       767.580505      -1.57058263    
   3.53553391       3.53553391      -5.00000000       792.897827      -1.57058525    
   3.53553391       3.53553391      -4.00000000       792.897827      -1.57058525    
   3.93283010       3.01776695      -4.00000000       792.897827      -1.57058525    
   3.93283010       3.01776695      -5.00000000       792.897827      -1.57058525    
   3.53553391       3.53553391      -4.00000000       811.801086      -1.57058692    
   3.53553391       3.53553391      -3.00000000       811.801086      -1.57058692    
   3.93283010       3.01776695      -3.00000000       811.801086      -1.57058692    
   3.93283010       3.01776695      -4.00000000       811.801086      -1.57058692    
   3.53553391       3.53553391      -3.00000000       825.828674      -1.57058764    
   3.53553391       3.53553391      -2.00000000       825.828674      -1.57058764    
   3.93283010       3.01776695      -2.00000000       825.828674      -1.57058764    
   3.93283010       3.01776695      -3.00000000       825.828674      -1.57058764    
   3.53553391       3.53553391      -2.00000000       836.040161      -1.57058811    
   3.53553391       3.53553391      -1.00000000       836.040161      -1.57058811    
   3.93283010       3.01776695      -1.00000000       836.040161      -1.57058811    
   3.93283010       3.01776695      -2.00000000       836.040161      -1.57058811    
   3.53553391       3.53553391      -1.00000000       843.066162      -1.57058811    
   3.53553391       3.53553391       0.00000000       843.066162      -1.57058811    
   3.93283010       3.01776695       0.00000000       843.066162      -1.57058811    
   3.93283010       3.01776695      -1.00000000       843.066162      -1.57058811    
   3.93283010       3.01776695      -10.0000000       534.384033      -1.57051957    
   3.93283010       3.01776695      -9.00000000       534.384033      -1.57051957    
   4.33012676       2.50000000      -9.00000000       534.384033      -1.57051957    
   4.33012676       2.50000000      -10.0000000       534.384033      -1.57051957    
   3.93283010       3.01776695      -9.00000000       671.792664      -1.57055569    
   3.93283010       3.01776695      -8.00000000       671.792664      -1.57055569    
   4.33012676       2.50000000      -8.00000000       671.792664      -1.57055569    
   4.33012676       2.50000000      -9.00000000       671.792664      -1.57055569    
   3.93283010       3.01776695      -8.00000000       749.626648      -1.57056952    
   3.93283010       3.01776695      -7.00000000       749.626648      -1.57056952    
   4.33012676       2.50000000      -7.00000000       749.626648      -1.57056952    
   4.33012676       2.50000000      -8.00000000       749.626648      -1.57056952    
   3.93283010       3.01776695      -7.00000000       802.226868      -1.57057691    
   3.93283010       3.01776695      -6.00000000       802.226868      -1.57057691    
   4.33012676       2.50000000      -6.00000000       802.226868      -1.57057691    
   4.33012676       2.50000000      -7.00000000       802.226868      -1.57057691    
   3.93283010       3.01776695      -6.00000000       839.952332      -1.57058132    
   3.93283010       3.01776695      -5.00000000       839.952332      -1.57058132    
   4.33012676       2.50000000      -5.00000000       839.952332      -1.57058132    
   4.33012676       2.50000000      -6.00000000       839.952332      -1.57058132    
   3.93283010       3.01776695      -5.00000000       867.815613      -1.57058406    
   3.93283010       3.01776695      -4.00000000       867.815613      -1.57058406    
   4.33012676       2.50000000      -4.00000000       867.815613      -1.57058406    
   4.33012676       2.50000000      -5.00000000       867.815613      -1.57058406    
   3.93283010       3.01776695      -4.00000000       888.622009      -1.57058561    
   3.93283010       3.01776695      -3.00000000       888.622009      -1.57058561    
   4.33012676       2.50000000      -3.00000000       888.622009      -1.57058561    
   4.33012676       2.50000000      -4.00000000       888.622009      -1.57058561    
   3.93283010       3.01776695      -3.00000000       904.065857      -1.57058644    
   3.93283010       3.01776695      -2.00000000       904.065857      -1.57058644    
   4.33012676       2.50000000      -2.00000000       904.065857      -1.57058644    
   4.33012676       2.50000000      -3.00000000       904.065857      -1.57058644    
   3.93283010       3.01776695      -2.00000000       915.305664      -1.57058680    
   3.93283010       3.01776695      -1.00000000       915.305664      -1.57058680    
   4.33012676       2.50000000      -1.00000000       915.305664      -1.57058680    
   4.33012676       2.50000000      -2.00000000       915.305664      -1.57058680    
   3.93283010       3.01776695      -1.00000000       923.091003      -1.57058692    
   3.93283010       3.01776695       0.00000000       923.091003      -1.57058692    
   4.33012676       2.50000000       0.00000000       923.091003      -1.57058692    
   4.33012676       2.50000000      -1.00000000       923.091003      -1.57058692    
   2.50000000       4.33012676      -10.0000000       363.809906      -1.57052326    
   2.50000000       4.33012676      -9.00000000       363.809906      -1.57052326    
   3.01776695       3.93283010      -9.00000000       363.809906      -1.57052326    
   3.01776695       3.93283010      -10.0000000       363.809906      -1.57052326    
   2.50000000       4.33012676      -9.00000000       456.486359      -1.57055807    
   2.50000000       4.33012676      -8.00000000       456.486359      -1.57055807    
   3.01776695       3.93283010      -8.00000000       456.486359      -1.57055807    
   3.01776695       3.93283010      -9.00000000       456.486359      -1.57055807    
   2.50000000       4.33012676      -8.00000000       508.842255      -1.57057154    
   2.50000000       4.33012676      -7.00000000       508.842255      -1.57057154    
   3.01776695       3.93283010      -7.00000000       508.842255      -1.57057154    
   3.01776695       3.93283010      -8.00000000       508.842255      -1.57057154    
   2.50000000       4.33012676      -7.00000000       544.225403      -1.57057881    
   2.50000000       4.33012676      -6.00000000       544.225403      -1.57057881    
   3.01776695       3.93283010      -6.00000000       544.225403      -1.57057881    
   3.01776695       3.93283010      -7.00000000       544.225403      -1.57057881    
   2.50000000       4.33012676      -6.00000000       569.593933      -1.57058311    
   2.50000000       4.33012676      -5.00000000       569.593933      -1.57058311    
   3.01776695       3.93283010      -5.00000000       569.593933      -1.57058311    
   3.01776695       3.93283010      -6.00000000       569.593933      -1.57058311    
   2.50000000       4.33012676      -5.00000000       588.337097      -1.57058573    
   2.50000000       4.33012676      -4.00000000       588.337097      -1.57058573    
   3.01776695       3.93283010      -4.00000000       588.337097      -1.57058573    
   3.01776695       3.93283010      -5.00000000       588.337097      -1.57058573    
   2.50000000       4.33012676      -4.00000000       602.332703      -1.57058728    
   2.50000000       4.33012676      -3.00000000       602.332703      -1.57058728    
   3.01776695       3.93283010      -3.00000000       602.332703      -1.57058728    
   3.01776695       3.93283010      -4.00000000       602.332703      -1.57058728    
   2.50000000       4.33012676      -3.00000000       612.717102      -1.57058811    
   2.50000000       4.33012676      -2.00000000       612.717102      -1.57058811    
   3.01776695       3.93283010      -2.00000000       612.717102      -1.57058811    
   3.01776695       3.93283010      -3.00000000       612.717102      -1.57058811    
   2.50000000       4.33012676      -2.00000000       620.277161      -1.57058847    
   2.50000000       4.33012676      -1.00000000       620.277161      -1.57058847    
   3.01776695       3.93283010      -1.00000000       620.277161      -1.57058847    
   3.01776695       3.93283010      -2.00000000       620.277161      -1.57058847    
   2.50000000       4.33012676      -1.00000000       625.465576      -1.57058847    
   2.50000000       4.33012676       0.00000000       625.465576      -1.57058847    
   3.01776695       3.93283010       0.00000000       625.465576      -1.57058847    
   3.01776695       3.93283010      -1.00000000       625.465576      -1.57058847    
   3.01776695       3.93283010      -10.0000000       422.013916      -1.57051885    
   3.01776695       3.93283010      -9.00000000       422.013916      -1.57051885    
   3.53553391       3.53553391      -9.00000000       422.013916      -1.57051885    
   3.53553391       3.53553391      -10.0000000       422.013916      -1.57051885    
   3.01776695       3.93283010      -9.00000000       530.754211      -1.57055509    
   3.01776695       3.93283010      -8.00000000       530.754211      -1.57055509    
   3.53553391       3.53553391      -8.00000000       530.754211      -1.57055509    
   3.53553391       3.53553391      -9.00000000       530.754211      -1.57055509    
   3.01776695       3.93283010      -8.00000000       592.384705      -1.57056904    
   3.01776695       3.93283010      -7.00000000       592.384705      -1.57056904    
   3.53553391       3.53553391      -7.00000000       592.384705      -1.57056904    
   3.53553391       3.53553391      -8.00000000       592.384705      -1.57056904    
   3.01776695       3.93283010      -7.00000000       634.035095      -1.57057643    
   3.01776695       3.93283010      -6.00000000       634.035095      -1.57057643    
   3.53553391       3.53553391      -6.00000000       634.035095      -1.57057643    
   3.53553391       3.53553391      -7.00000000       634.035095      -1.57057643    
   3.01776695       3.93283010      -6.00000000       663.909119      -1.57058096    
   3.01776695       3.93283010      -5.00000000       663.909119      -1.57058096    
   3.53553391       3.53553391      -5.00000000       663.909119      -1.57058096    
   3.53553391       3.53553391      -6.00000000       663.909119      -1.57058096    
   3.01776695       3.93283010      -5.00000000       685.972839      -1.57058370    
   3.01776695       3.93283010      -4.00000000       685.972839      -1.57058370    
   3.53553391       3.53553391      -4.00000000       685.972839      -1.57058370    
   3.53553391       3.53553391      -5.00000000       685.972839      -1.57058370    
   3.01776695       3.93283010      -4.00000000       702.447998      -1.57058513    
   3.01776695       3.93283010      -3.00000000       702.447998      -1.57058513    
   3.53553391       3.53553391      -3.00000000       702.447998      -1.57058513    
   3.53553391       3.53553391      -4.00000000       702.447998      -1.57058513    
   3.01776695       3.93283010      -3.00000000       714.678101      -1.57058609    
   3.01776695       3.93283010      -2.00000000       714.678101      -1.57058609    
   3.53553391       3.53553391      -2.00000000       714.678101      -1.57058609    
   3.53553391       3.53553391      -3.00000000       714.678101      -1.57058609    
   3.01776695       3.93283010      -2.00000000       723.578003      -1.57058644    
   3.01776695       3.93283010      -1.00000000       723.578003      -1.57058644    
   3.53553391       3.53553391      -1.00000000       723.578003      -1.57058644    
   3.53553391       3.53553391      -2.00000000       723.578003      -1.57058644    
   3.01776695       3.93283010      -1.00000000       729.755066      -1.57058656    
   3.01776695       3.93283010       0.00000000       729.755066      -1.57058656    
   3.53553391       3.53553391       0.00000000       729.755066      -1.57058656    
   3.53553391       3.53553391      -1.00000000       729.755066      -1.57058656    
   1.29409504       4.82962894      -10.0000000       213.104416      -1.57052553    
   1.29409504       4.82962894      -9.00000000       213.104416      -1.57052553    
   1.89704800       4.57987785      -9.00000000       213.104416      -1.57052553    
   1.89704800       4.57987785      -10.0000000       213.104416      -1.57052553    
   1.29409504       4.82962894      -9.00000000       267.059021      -1.57055962    
   1.29409504       4.82962894      -8.00000000       267.059021      -1.57055962    
   1.89704800       4.57987785      -8.00000000       267.059021      -1.57055962    
   1.89704800       4.57987785      -9.00000000       267.059021      -1.57055962    
   1.29409504       4.82962894      -8.00000000       297.486145      -1.57057321    
   1.29409504       4.82962894      -7.00000000       297.486145      -1.57057321    
   1.89704800       4.57987785      -7.00000000       297.486145      -1.57057321    
   1.89704800       4.57987785      -8.00000000       297.486145      -1.57057321    
   1.29409504       4.82962894      -7.00000000       318.050110      -1.57058024    
   1.29409504       4.82962894      -6.00000000       318.050110      -1.57058024    
   1.89704800       4.57987785      -6.00000000       318.050110      -1.57058024    
   1.89704800       4.57987785      -7.00000000       318.050110      -1.57058024    
   1.29409504       4.82962894      -6.00000000       332.789612      -1.57058442    
   1.29409504       4.82962894      -5.00000000       332.789612      -1.57058442    
   1.89704800       4.57987785      -5.00000000       332.789612      -1.57058442    
   1.89704800       4.57987785      -6.00000000       332.789612      -1.57058442    
   1.29409504       4.82962894      -5.00000000       343.682465      -1.57058704    
   1.29409504       4.82962894      -4.00000000       343.682465      -1.57058704    
   1.89704800       4.57987785      -4.00000000       343.682465      -1.57058704    
   1.89704800       4.57987785      -5.00000000       343.682465      -1.57058704    
   1.29409504       4.82962894      -4.00000000       351.816101      -1.57058835    
   1.29409504       4.82962894      -3.00000000       351.816101      -1.57058835    
   1.89704800       4.57987785      -3.00000000       351.816101      -1.57058835    