 VARIABLES="X" "Y" "Z" "abs(p) (Pa)" "angle(p) (rad)"
ZONE N=   1080,E =     600, F=FEPOINT, ET=QUADRILATERAL
   4.82962894       1.29409504      -10.0000000       1306.96228      -3.11953521    
   4.82962894       1.29409504      -9.00000000       1306.96228      -3.11953521    
   4.91481400      0.647047520      -9.00000000       1306.96228      -3.11953521    
   4.91481400      0.647047520      -10.0000000       1306.96228      -3.11953521    
   4.82962894       1.29409504      -9.00000000       1652.27502       3.04509211    
   4.82962894       1.29409504      -8.00000000       1652.27502       3.04509211    
   4.91481400      0.647047520      -8.00000000       1652.27502       3.04509211    
   4.91481400      0.647047520      -9.00000000       1652.27502       3.04509211    
   4.82962894       1.29409504      -8.00000000       2023.88123       2.99616671    
   4.82962894       1.29409504      -7.00000000       2023.88123       2.99616671    
   4.91481400      0.647047520      -7.00000000       2023.88123       2.99616671    
   4.91481400      0.647047520      -8.00000000       2023.88123       2.99616671    
   4.82962894       1.29409504      -7.00000000       2445.47046       2.97002292    
   4.82962894       1.29409504      -6.00000000       2445.47046       2.97002292    
   4.91481400      0.647047520      -6.00000000       2445.47046       2.97002292    
   4.91481400      0.647047520      -7.00000000       2445.47046       2.97002292    
   4.82962894       1.29409504      -6.00000000       2934.15942       2.95483375    
   4.82962894       1.29409504      -5.00000000       2934.15942       2.95483375    
   4.91481400      0.647047520      -5.00000000       2934.15942       2.95483375    
   4.91481400      0.647047520      -6.00000000       2934.15942       2.95483375    
   4.82962894       1.29409504      -5.00000000       3506.77490       2.94570994    
   4.82962894       1.29409504      -4.00000000       3506.77490       2.94570994    
   4.91481400      0.647047520      -4.00000000       3506.77490       2.94570994    
   4.91481400      0.647047520      -5.00000000       3506.77490       2.94570994    
   4.82962894       1.29409504      -4.00000000       4180.79004       2.94045949    
   4.82962894       1.29409504      -3.00000000       4180.79004       2.94045949    
   4.91481400      0.647047520      -3.00000000       4180.79004       2.94045949    
   4.91481400      0.647047520      -4.00000000       4180.79004       2.94045949    
   4.82962894       1.29409504      -3.00000000       4975.48682       2.93762898    
   4.82962894       1.29409504      -2.00000000       4975.48682       2.93762898    
   4.91481400      0.647047520      -2.00000000       4975.48682       2.93762898    
   4.91481400      0.647047520      -3.00000000       4975.48682       2.93762898    
   4.82962894       1.29409504      -2.00000000       5913.92285       2.93644714    
   4.82962894       1.29409504      -1.00000000       5913.92285       2.93644714    
   4.91481400      0.647047520      -1.00000000       5913.92285       2.93644714    
   4.91481400      0.647047520      -2.00000000       5913.92285       2.93644714    
   4.82962894       1.29409504      -1.00000000       7016.83105       2.93691373    
   4.82962894       1.29409504       0.00000000       7016.83105       2.93691373    
   4.91481400      0.647047520       0.00000000       7016.83105       2.93691373    
   4.91481400      0.647047520      -1.00000000       7016.83105       2.93691373    
   4.91481400      0.647047520      -10.0000000       1334.27747      -3.12105823    
   4.91481400      0.647047520      -9.00000000       1334.27747      -3.12105823    
   5.00000000       0.00000000      -9.00000000       1334.27747      -3.12105823    
   5.00000000       0.00000000      -10.0000000       1334.27747      -3.12105823    
   4.91481400      0.647047520      -9.00000000       1690.81311       3.04505992    
   4.91481400      0.647047520      -8.00000000       1690.81311       3.04505992    
   5.00000000       0.00000000      -8.00000000       1690.81311       3.04505992    
   5.00000000       0.00000000      -9.00000000       1690.81311       3.04505992    
   4.91481400      0.647047520      -8.00000000       2072.64404       2.99678302    
   4.91481400      0.647047520      -7.00000000       2072.64404       2.99678302    
   5.00000000       0.00000000      -7.00000000       2072.64404       2.99678302    
   5.00000000       0.00000000      -8.00000000       2072.64404       2.99678302    
   4.91481400      0.647047520      -7.00000000       2505.20068       2.97096944    
   4.91481400      0.647047520      -6.00000000       2505.20068       2.97096944    
   5.00000000       0.00000000      -6.00000000       2505.20068       2.97096944    
   5.00000000       0.00000000      -7.00000000       2505.20068       2.97096944    
   4.91481400      0.647047520      -6.00000000       3006.30029       2.95595884    
   4.91481400      0.647047520      -5.00000000       3006.30029       2.95595884    
   5.00000000       0.00000000      -5.00000000       3006.30029       2.95595884    
   5.00000000       0.00000000      -6.00000000       3006.30029       2.95595884    
   4.91481400      0.647047520      -5.00000000       3593.29346       2.94693613    
   4.91481400      0.647047520      -4.00000000       3593.29346       2.94693613    
   5.00000000       0.00000000      -4.00000000       3593.29346       2.94693613    
   5.00000000       0.00000000      -5.00000000       3593.29346       2.94693613    
   4.91481400      0.647047520      -4.00000000       4284.10205       2.94173789    
   4.91481400      0.647047520      -3.00000000       4284.10205       2.94173789    
   5.00000000       0.00000000      -3.00000000       4284.10205       2.94173789    
   5.00000000       0.00000000      -4.00000000       4284.10205       2.94173789    
   4.91481400      0.647047520      -3.00000000       5098.54980       2.93892837    
   4.91481400      0.647047520      -2.00000000       5098.54980       2.93892837    
   5.00000000       0.00000000      -2.00000000       5098.54980       2.93892837    
   5.00000000       0.00000000      -3.00000000       5098.54980       2.93892837    
   4.91481400      0.647047520      -2.00000000       6060.25439       2.93774676    
   4.91481400      0.647047520      -1.00000000       6060.25439       2.93774676    
   5.00000000       0.00000000      -1.00000000       6060.25439       2.93774676    
   5.00000000       0.00000000      -2.00000000       6060.25439       2.93774676    
   4.91481400      0.647047520      -1.00000000       7190.52539       2.93817306    
   4.91481400      0.647047520       0.00000000       7190.52539       2.93817306    
   5.00000000       0.00000000       0.00000000       7190.52539       2.93817306    
   5.00000000       0.00000000      -1.00000000       7190.52539       2.93817306    
   4.33012676       2.50000000      -10.0000000       1167.81396      -3.10451436    
   4.33012676       2.50000000      -9.00000000       1167.81396      -3.10451436    
   4.57987785       1.89704800      -9.00000000       1167.81396      -3.10451436    
   4.57987785       1.89704800      -10.0000000       1167.81396      -3.10451436    
   4.33012676       2.50000000      -9.00000000       1454.88025       3.05199575    
   4.33012676       2.50000000      -8.00000000       1454.88025       3.05199575    
   4.57987785       1.89704800      -8.00000000       1454.88025       3.05199575    
   4.57987785       1.89704800      -9.00000000       1454.88025       3.05199575    
   4.33012676       2.50000000      -8.00000000       1773.93030       2.99926686    
   4.33012676       2.50000000      -7.00000000       1773.93030       2.99926686    
   4.57987785       1.89704800      -7.00000000       1773.93030       2.99926686    
   4.57987785       1.89704800      -8.00000000       1773.93030       2.99926686    
   4.33012676       2.50000000      -7.00000000       2139.18335       2.97114706    
   4.33012676       2.50000000      -6.00000000       2139.18335       2.97114706    
   4.57987785       1.89704800      -6.00000000       2139.18335       2.97114706    
   4.57987785       1.89704800      -7.00000000       2139.18335       2.97114706    
   4.33012676       2.50000000      -6.00000000       2564.14331       2.95486975    
   4.33012676       2.50000000      -5.00000000       2564.14331       2.95486975    
   4.57987785       1.89704800      -5.00000000       2564.14331       2.95486975    
   4.57987785       1.89704800      -6.00000000       2564.14331       2.95486975    
   4.33012676       2.50000000      -5.00000000       3062.96143       2.94512510    
   4.33012676       2.50000000      -4.00000000       3062.96143       2.94512510    
   4.57987785       1.89704800      -4.00000000       3062.96143       2.94512510    
   4.57987785       1.89704800      -5.00000000       3062.96143       2.94512510    
   4.33012676       2.50000000      -4.00000000       3650.71118       2.93955064    
   4.33012676       2.50000000      -3.00000000       3650.71118       2.93955064    
   4.57987785       1.89704800      -3.00000000       3650.71118       2.93955064    
   4.57987785       1.89704800      -4.00000000       3650.71118       2.93955064    
   4.33012676       2.50000000      -3.00000000       4344.04443       2.93658185    
   4.33012676       2.50000000      -2.00000000       4344.04443       2.93658185    
   4.57987785       1.89704800      -2.00000000       4344.04443       2.93658185    
   4.57987785       1.89704800      -3.00000000       4344.04443       2.93658185    
   4.33012676       2.50000000      -2.00000000       5163.08838       2.93539453    
   4.33012676       2.50000000      -1.00000000       5163.08838       2.93539453    
   4.57987785       1.89704800      -1.00000000       5163.08838       2.93539453    
   4.57987785       1.89704800      -2.00000000       5163.08838       2.93539453    
   4.33012676       2.50000000      -1.00000000       6126.05322       2.93607616    
   4.33012676       2.50000000       0.00000000       6126.05322       2.93607616    
   4.57987785       1.89704800       0.00000000       6126.05322       2.93607616    
   4.57987785       1.89704800      -1.00000000       6126.05322       2.93607616    
   4.57987785       1.89704800      -10.0000000       1245.27502      -3.11241937    
   4.57987785       1.89704800      -9.00000000       1245.27502      -3.11241937    
   4.82962894       1.29409504      -9.00000000       1245.27502      -3.11241937    
   4.82962894       1.29409504      -10.0000000       1245.27502      -3.11241937    
   4.57987785       1.89704800      -9.00000000       1564.60376       3.04860210    
   4.57987785       1.89704800      -8.00000000       1564.60376       3.04860210    
   4.82962894       1.29409504      -8.00000000       1564.60376       3.04860210    
   4.82962894       1.29409504      -9.00000000       1564.60376       3.04860210    
   4.57987785       1.89704800      -8.00000000       1912.97546       2.99799013    
   4.57987785       1.89704800      -7.00000000       1912.97546       2.99799013    
   4.82962894       1.29409504      -7.00000000       1912.97546       2.99799013    
   4.82962894       1.29409504      -8.00000000       1912.97546       2.99799013    
   4.57987785       1.89704800      -7.00000000       2309.63330       2.97097945    
   4.57987785       1.89704800      -6.00000000       2309.63330       2.97097945    
   4.82962894       1.29409504      -6.00000000       2309.63330       2.97097945    
   4.82962894       1.29409504      -7.00000000       2309.63330       2.97097945    
   4.57987785       1.89704800      -6.00000000       2770.11108       2.95531225    
   4.57987785       1.89704800      -5.00000000       2770.11108       2.95531225    
   4.82962894       1.29409504      -5.00000000       2770.11108       2.95531225    
   4.82962894       1.29409504      -6.00000000       2770.11108       2.95531225    
   4.57987785       1.89704800      -5.00000000       3310.03613       2.94591618    
   4.57987785       1.89704800      -4.00000000       3310.03613       2.94591618    
   4.82962894       1.29409504      -4.00000000       3310.03613       2.94591618    
   4.82962894       1.29409504      -5.00000000       3310.03613       2.94591618    
   4.57987785       1.89704800      -4.00000000       3945.81055       2.94052410    
   4.57987785       1.89704800      -3.00000000       3945.81055       2.94052410    
   4.82962894       1.29409504      -3.00000000       3945.81055       2.94052410    
   4.82962894       1.29409504      -4.00000000       3945.81055       2.94052410    
   4.57987785       1.89704800      -3.00000000       4695.59375       2.93763018    
   4.57987785       1.89704800      -2.00000000       4695.59375       2.93763018    
   4.82962894       1.29409504      -2.00000000       4695.59375       2.93763018    
   4.82962894       1.29409504      -3.00000000       4695.59375       2.93763018    
   4.57987785       1.89704800      -2.00000000       5581.10840       2.93644500    
   4.57987785       1.89704800      -1.00000000       5581.10840       2.93644500    
   4.82962894       1.29409504      -1.00000000       5581.10840       2.93644500    
   4.82962894       1.29409504      -2.00000000       5581.10840       2.93644500    
   4.57987785       1.89704800      -1.00000000       6622.23291       2.93699098    
   4.57987785       1.89704800       0.00000000       6622.23291       2.93699098    
   4.82962894       1.29409504       0.00000000       6622.23291       2.93699098    
   4.82962894       1.29409504      -1.00000000       6622.23291       2.93699098    
   3.53553391       3.53553391      -10.0000000       941.526001      -3.05332041    
   3.53553391       3.53553391      -9.00000000       941.526001      -3.05332041    
   3.93283010       3.01776695      -9.00000000       941.526001      -3.05332041    
   3.93283010       3.01776695      -10.0000000       941.526001      -3.05332041    
   3.53553391       3.53553391      -9.00000000       1130.72778       3.08967090    
   3.53553391       3.53553391      -8.00000000       1130.72778       3.08967090    
   3.93283010       3.01776695      -8.00000000       1130.72778       3.08967090    
   3.93283010       3.01776695      -9.00000000       1130.72778       3.08967090    
   3.53553391       3.53553391      -8.00000000       1361.90356       3.02921057    
   3.53553391       3.53553391      -7.00000000       1361.90356       3.02921057    
   3.93283010       3.01776695      -7.00000000       1361.90356       3.02921057    
   3.93283010       3.01776695      -8.00000000       1361.90356       3.02921057    
   3.53553391       3.53553391      -7.00000000       1633.29944       2.99680042    
   3.53553391       3.53553391      -6.00000000       1633.29944       2.99680042    
   3.93283010       3.01776695      -6.00000000       1633.29944       2.99680042    
   3.93283010       3.01776695      -7.00000000       1633.29944       2.99680042    
   3.53553391       3.53553391      -6.00000000       1952.31311       2.97807670    
   3.53553391       3.53553391      -5.00000000       1952.31311       2.97807670    
   3.93283010       3.01776695      -5.00000000       1952.31311       2.97807670    
   3.93283010       3.01776695      -6.00000000       1952.31311       2.97807670    
   3.53553391       3.53553391      -5.00000000       2328.60571       2.96690655    
   3.53553391       3.53553391      -4.00000000       2328.60571       2.96690655    
   3.93283010       3.01776695      -4.00000000       2328.60571       2.96690655    
   3.93283010       3.01776695      -5.00000000       2328.60571       2.96690655    
   3.53553391       3.53553391      -4.00000000       2773.27075       2.96057653    
   3.53553391       3.53553391      -3.00000000       2773.27075       2.96057653    
   3.93283010       3.01776695      -3.00000000       2773.27075       2.96057653    
   3.93283010       3.01776695      -4.00000000       2773.27075       2.96057653    
   3.53553391       3.53553391      -3.00000000       3298.59399       2.95728207    
   3.53553391       3.53553391      -2.00000000       3298.59399       2.95728207    
   3.93283010       3.01776695      -2.00000000       3298.59399       2.95728207    
   3.93283010       3.01776695      -3.00000000       3298.59399       2.95728207    
   3.53553391       3.53553391      -2.00000000       3919.85474       2.95607758    
   3.53553391       3.53553391      -1.00000000       3919.85474       2.95607758    
   3.93283010       3.01776695      -1.00000000       3919.85474       2.95607758    
   3.93283010       3.01776695      -2.00000000       3919.85474       2.95607758    
   3.53553391       3.53553391      -1.00000000       4651.31885       2.95724273    
   3.53553391       3.53553391       0.00000000       4651.31885       2.95724273    
   3.93283010       3.01776695       0.00000000       4651.31885       2.95724273    
   3.93283010       3.01776695      -1.00000000       4651.31885       2.95724273    
   3.93283010       3.01776695      -10.0000000       1055.29944      -3.08091640    
   3.93283010       3.01776695      -9.00000000       1055.29944      -3.08091640    
   4.33012676       2.50000000      -9.00000000       1055.29944      -3.08091640    
   4.33012676       2.50000000      -10.0000000       1055.29944      -3.08091640    
   3.93283010       3.01776695      -9.00000000       1293.62061       3.06865168    
   3.93283010       3.01776695      -8.00000000       1293.62061       3.06865168    
   4.33012676       2.50000000      -8.00000000       1293.62061       3.06865168    
   4.33012676       2.50000000      -9.00000000       1293.62061       3.06865168    
   3.93283010       3.01776695      -8.00000000       1569.26526       3.01215672    
   3.93283010       3.01776695      -7.00000000       1569.26526       3.01215672    
   4.33012676       2.50000000      -7.00000000       1569.26526       3.01215672    
   4.33012676       2.50000000      -8.00000000       1569.26526       3.01215672    
   3.93283010       3.01776695      -7.00000000       1888.09558       2.98200560    
   3.93283010       3.01776695      -6.00000000       1888.09558       2.98200560    
   4.33012676       2.50000000      -6.00000000       1888.09558       2.98200560    
   4.33012676       2.50000000      -7.00000000       1888.09558       2.98200560    
   3.93283010       3.01776695      -6.00000000       2260.61670       2.96457791    
   3.93283010       3.01776695      -5.00000000       2260.61670       2.96457791    
   4.33012676       2.50000000      -5.00000000       2260.61670       2.96457791    
   4.33012676       2.50000000      -6.00000000       2260.61670       2.96457791    
   3.93283010       3.01776695      -5.00000000       2698.74097       2.95416880    
   3.93283010       3.01776695      -4.00000000       2698.74097       2.95416880    
   4.33012676       2.50000000      -4.00000000       2698.74097       2.95416880    
   4.33012676       2.50000000      -5.00000000       2698.74097       2.95416880    
   3.93283010       3.01776695      -4.00000000       3215.55396       2.94824457    
   3.93283010       3.01776695      -3.00000000       3215.55396       2.94824457    
   4.33012676       2.50000000      -3.00000000       3215.55396       2.94824457    
   4.33012676       2.50000000      -4.00000000       3215.55396       2.94824457    
   3.93283010       3.01776695      -3.00000000       3825.61206       2.94511843    
   3.93283010       3.01776695      -2.00000000       3825.61206       2.94511843    
   4.33012676       2.50000000      -2.00000000       3825.61206       2.94511843    
   4.33012676       2.50000000      -3.00000000       3825.61206       2.94511843    
   3.93283010       3.01776695      -2.00000000       4546.58887       2.94392109    
   3.93283010       3.01776695      -1.00000000       4546.58887       2.94392109    
   4.33012676       2.50000000      -1.00000000       4546.58887       2.94392109    
   4.33012676       2.50000000      -2.00000000       4546.58887       2.94392109    
   3.93283010       3.01776695      -1.00000000       5395.15723       2.94478750    
   3.93283010       3.01776695       0.00000000       5395.15723       2.94478750    
   4.33012676       2.50000000       0.00000000       5395.15723       2.94478750    
   4.33012676       2.50000000      -1.00000000       5395.15723       2.94478750    
   2.50000000       4.33012676      -10.0000000       677.583069      -2.89978456    
   2.50000000       4.33012676      -9.00000000       677.583069      -2.89978456    
   3.01776695       3.93283010      -9.00000000       677.583069      -2.89978456    
   3.01776695       3.93283010      -10.0000000       677.583069      -2.89978456    
   2.50000000       4.33012676      -9.00000000       744.632751      -3.04065776    
   2.50000000       4.33012676      -8.00000000       744.632751      -3.04065776    
   3.01776695       3.93283010      -8.00000000       744.632751      -3.04065776    
   3.01776695       3.93283010      -9.00000000       744.632751      -3.04065776    
   2.50000000       4.33012676      -8.00000000       865.838745      -3.10968399    
   2.50000000       4.33012676      -7.00000000       865.838745      -3.10968399    
   3.01776695       3.93283010      -7.00000000       865.838745      -3.10968399    
   3.01776695       3.93283010      -8.00000000       865.838745      -3.10968399    
   2.50000000       4.33012676      -7.00000000       1020.66949       3.13477182    
   2.50000000       4.33012676      -6.00000000       1020.66949       3.13477182    
   3.01776695       3.93283010      -6.00000000       1020.66949       3.13477182    
   3.01776695       3.93283010      -7.00000000       1020.66949       3.13477182    
   2.50000000       4.33012676      -6.00000000       1208.88196       3.11197495    
   2.50000000       4.33012676      -5.00000000       1208.88196       3.11197495    
   3.01776695       3.93283010      -5.00000000       1208.88196       3.11197495    
   3.01776695       3.93283010      -6.00000000       1208.88196       3.11197495    
   2.50000000       4.33012676      -5.00000000       1434.49646       3.09827423    
   2.50000000       4.33012676      -4.00000000       1434.49646       3.09827423    
   3.01776695       3.93283010      -4.00000000       1434.49646       3.09827423    
   3.01776695       3.93283010      -5.00000000       1434.49646       3.09827423    
   2.50000000       4.33012676      -4.00000000       1703.74390       3.09056258    
   2.50000000       4.33012676      -3.00000000       1703.74390       3.09056258    
   3.01776695       3.93283010      -3.00000000       1703.74390       3.09056258    
   3.01776695       3.93283010      -4.00000000       1703.74390       3.09056258    
   2.50000000       4.33012676      -3.00000000       2023.54956       3.08670831    
   2.50000000       4.33012676      -2.00000000       2023.54956       3.08670831    
   3.01776695       3.93283010      -2.00000000       2023.54956       3.08670831    
   3.01776695       3.93283010      -3.00000000       2023.54956       3.08670831    
   2.50000000       4.33012676      -2.00000000       2403.31787       3.08554840    
   2.50000000       4.33012676      -1.00000000       2403.31787       3.08554840    
   3.01776695       3.93283010      -1.00000000       2403.31787       3.08554840    
   3.01776695       3.93283010      -2.00000000       2403.31787       3.08554840    
   2.50000000       4.33012676      -1.00000000       2853.10156       3.08778858    
   2.50000000       4.33012676       0.00000000       2853.10156       3.08778858    
   3.01776695       3.93283010       0.00000000       2853.10156       3.08778858    
   3.01776695       3.93283010      -1.00000000       2853.10156       3.08778858    
   3.01776695       3.93283010      -10.0000000       801.540955      -2.98520923    
   3.01776695       3.93283010      -9.00000000       801.540955      -2.98520923    
   3.53553391       3.53553391      -9.00000000       801.540955      -2.98520923    
   3.53553391       3.53553391      -10.0000000       801.540955      -2.98520923    
   3.01776695       3.93283010      -9.00000000       926.075012      -3.13049221    
   3.01776695       3.93283010      -8.00000000       926.075012      -3.13049221    
   3.53553391       3.53553391      -8.00000000       926.075012      -3.13049221    
   3.53553391       3.53553391      -9.00000000       926.075012      -3.13049221    
   3.01776695       3.93283010      -8.00000000       1099.79041       3.08658123    
   3.01776695       3.93283010      -7.00000000       1099.79041       3.08658123    
   3.53553391       3.53553391      -7.00000000       1099.79041       3.08658123    
   3.53553391       3.53553391      -8.00000000       1099.79041       3.08658123    
   3.01776695       3.93283010      -7.00000000       1310.20264       3.05060458    
   3.01776695       3.93283010      -6.00000000       1310.20264       3.05060458    
   3.53553391       3.53553391      -6.00000000       1310.20264       3.05060458    
   3.53553391       3.53553391      -7.00000000       1310.20264       3.05060458    
   3.01776695       3.93283010      -6.00000000       1560.68713       3.02970600    
   3.01776695       3.93283010      -5.00000000       1560.68713       3.02970600    
   3.53553391       3.53553391      -5.00000000       1560.68713       3.02970600    
   3.53553391       3.53553391      -6.00000000       1560.68713       3.02970600    
   3.01776695       3.93283010      -5.00000000       1857.91418       3.01722980    
   3.01776695       3.93283010      -4.00000000       1857.91418       3.01722980    
   3.53553391       3.53553391      -4.00000000       1857.91418       3.01722980    
   3.53553391       3.53553391      -5.00000000       1857.91418       3.01722980    
   3.01776695       3.93283010      -4.00000000       2210.40356       3.01020002    
   3.01776695       3.93283010      -3.00000000       2210.40356       3.01020002    
   3.53553391       3.53553391      -3.00000000       2210.40356       3.01020002    
   3.53553391       3.53553391      -4.00000000       2210.40356       3.01020002    
   3.01776695       3.93283010      -3.00000000       2627.69702       3.00659657    
   3.01776695       3.93283010      -2.00000000       2627.69702       3.00659657    
   3.53553391       3.53553391      -2.00000000       2627.69702       3.00659657    
   3.53553391       3.53553391      -3.00000000       2627.69702       3.00659657    
   3.01776695       3.93283010      -2.00000000       3121.92163       3.00538492    
   3.01776695       3.93283010      -1.00000000       3121.92163       3.00538492    
   3.53553391       3.53553391      -1.00000000       3121.92163       3.00538492    
   3.53553391       3.53553391      -2.00000000       3121.92163       3.00538492    
   3.01776695       3.93283010      -1.00000000       3705.54907       3.00693297    
   3.01776695       3.93283010       0.00000000       3705.54907       3.00693297    
   3.53553391       3.53553391       0.00000000       3705.54907       3.00693297    
   3.53553391       3.53553391      -1.00000000       3705.54907       3.00693297    
   1.29409504       4.82962894      -10.0000000       472.424133      -2.48743105    
   1.29409504       4.82962894      -9.00000000       472.424133      -2.48743105    
   1.89704800       4.57987785      -9.00000000       472.424133      -2.48743105    
   1.89704800       4.57987785      -10.0000000       472.424133      -2.48743105    
   1.29409504       4.82962894      -9.00000000       449.586853      -2.47275829    
   1.29409504       4.82962894      -8.00000000       449.586853      -2.47275829    
   1.89704800       4.57987785      -8.00000000       449.586853      -2.47275829    
   1.89704800       4.57987785      -9.00000000       449.586853      -2.47275829    
   1.29409504       4.82962894      -8.00000000       482.686279      -2.47522473    
   1.29409504       4.82962894      -7.00000000       482.686279      -2.47522473    
   1.89704800       4.57987785      -7.00000000       482.686279      -2.47522473    
   1.89704800       4.57987785      -8.00000000       482.686279      -2.47522473    
   1.29409504       4.82962894      -7.00000000       542.735352      -2.48004293    
   1.29409504       4.82962894      -6.00000000       542.735352      -2.48004293    
   1.89704800       4.57987785      -6.00000000       542.735352      -2.48004293    
   1.89704800       4.57987785      -7.00000000       542.735352      -2.48004293    
   1.29409504       4.82962894      -6.00000000       624.800354      -2.48433232    
   1.29409504       4.82962894      -5.00000000       624.800354      -2.48433232    
   1.89704800       4.57987785      -5.00000000       624.800354      -2.48433232    
   1.89704800       4.57987785      -6.00000000       624.800354      -2.48433232    
   1.29409504       4.82962894      -5.00000000       728.773132      -2.48751593    
   1.29409504       4.82962894      -4.00000000       728.773132      -2.48751593    
   1.89704800       4.57987785      -4.00000000       728.773132      -2.48751593    
   1.89704800       4.57987785      -5.00000000       728.773132      -2.48751593    
   1.29409504       4.82962894      -4.00000000       857.350464      -2.48943424    
   1.29409504       4.82962894      -3.00000000       857.350464      -2.48943424    
   1.89704800       4.57987785      -3.00000000       857.350464      -2.48943424    