 VARIABLES="X" "Y" "Z" "abs(p) (Pa)" "angle(p) (rad)"
ZONE N=   1080,E =     600, F=FEPOINT, ET=QUADRILATERAL
   4.82962894       1.29409504      -10.0000000       521.126465      -1.09966719    
   4.82962894       1.29409504      -9.00000000       521.126465      -1.09966719    
   4.91481400      0.647047520      -9.00000000       521.126465      -1.09966719    
   4.91481400      0.647047520      -10.0000000       521.126465      -1.09966719    
   4.82962894       1.29409504      -9.00000000       679.542847      -1.09497249    
   4.82962894       1.29409504      -8.00000000       679.542847      -1.09497249    
   4.91481400      0.647047520      -8.00000000       679.542847      -1.09497249    
   4.91481400      0.647047520      -9.00000000       679.542847      -1.09497249    
   4.82962894       1.29409504      -8.00000000       783.889343      -1.05276120    
   4.82962894       1.29409504      -7.00000000       783.889343      -1.05276120    
   4.91481400      0.647047520      -7.00000000       783.889343      -1.05276120    
   4.91481400      0.647047520      -8.00000000       783.889343      -1.05276120    
   4.82962894       1.29409504      -7.00000000       874.130188     -0.995695233    
   4.82962894       1.29409504      -6.00000000       874.130188     -0.995695233    
   4.91481400      0.647047520      -6.00000000       874.130188     -0.995695233    
   4.91481400      0.647047520      -7.00000000       874.130188     -0.995695233    
   4.82962894       1.29409504      -6.00000000       966.778503     -0.930643559    
   4.82962894       1.29409504      -5.00000000       966.778503     -0.930643559    
   4.91481400      0.647047520      -5.00000000       966.778503     -0.930643559    
   4.91481400      0.647047520      -6.00000000       966.778503     -0.930643559    
   4.82962894       1.29409504      -5.00000000       1073.58716     -0.862775743    
   4.82962894       1.29409504      -4.00000000       1073.58716     -0.862775743    
   4.91481400      0.647047520      -4.00000000       1073.58716     -0.862775743    
   4.91481400      0.647047520      -5.00000000       1073.58716     -0.862775743    
   4.82962894       1.29409504      -4.00000000       1204.86707     -0.797265649    
   4.82962894       1.29409504      -3.00000000       1204.86707     -0.797265649    
   4.91481400      0.647047520      -3.00000000       1204.86707     -0.797265649    
   4.91481400      0.647047520      -4.00000000       1204.86707     -0.797265649    
   4.82962894       1.29409504      -3.00000000       1370.79041     -0.739196002    
   4.82962894       1.29409504      -2.00000000       1370.79041     -0.739196002    
   4.91481400      0.647047520      -2.00000000       1370.79041     -0.739196002    
   4.91481400      0.647047520      -3.00000000       1370.79041     -0.739196002    
   4.82962894       1.29409504      -2.00000000       1583.68982     -0.693725407    
   4.82962894       1.29409504      -1.00000000       1583.68982     -0.693725407    
   4.91481400      0.647047520      -1.00000000       1583.68982     -0.693725407    
   4.91481400      0.647047520      -2.00000000       1583.68982     -0.693725407    
   4.82962894       1.29409504      -1.00000000       1860.00903     -0.666454136    
   4.82962894       1.29409504       0.00000000       1860.00903     -0.666454136    
   4.91481400      0.647047520       0.00000000       1860.00903     -0.666454136    
   4.91481400      0.647047520      -1.00000000       1860.00903     -0.666454136    
   4.91481400      0.647047520      -10.0000000       209.092087      -1.15902400    
   4.91481400      0.647047520      -9.00000000       209.092087      -1.15902400    
   5.00000000       0.00000000      -9.00000000       209.092087      -1.15902400    
   5.00000000       0.00000000      -10.0000000       209.092087      -1.15902400    
   4.91481400      0.647047520      -9.00000000       266.742188      -1.14344311    
   4.91481400      0.647047520      -8.00000000       266.742188      -1.14344311    
   5.00000000       0.00000000      -8.00000000       266.742188      -1.14344311    
   5.00000000       0.00000000      -9.00000000       266.742188      -1.14344311    
   4.91481400      0.647047520      -8.00000000       303.374298      -1.09893477    
   4.91481400      0.647047520      -7.00000000       303.374298      -1.09893477    
   5.00000000       0.00000000      -7.00000000       303.374298      -1.09893477    
   5.00000000       0.00000000      -8.00000000       303.374298      -1.09893477    
   4.91481400      0.647047520      -7.00000000       334.720123      -1.04174662    
   4.91481400      0.647047520      -6.00000000       334.720123      -1.04174662    
   5.00000000       0.00000000      -6.00000000       334.720123      -1.04174662    
   5.00000000       0.00000000      -7.00000000       334.720123      -1.04174662    
   4.91481400      0.647047520      -6.00000000       366.648651     -0.976839125    
   4.91481400      0.647047520      -5.00000000       366.648651     -0.976839125    
   5.00000000       0.00000000      -5.00000000       366.648651     -0.976839125    
   5.00000000       0.00000000      -6.00000000       366.648651     -0.976839125    
   4.91481400      0.647047520      -5.00000000       403.484863     -0.908555031    
   4.91481400      0.647047520      -4.00000000       403.484863     -0.908555031    
   5.00000000       0.00000000      -4.00000000       403.484863     -0.908555031    
   5.00000000       0.00000000      -5.00000000       403.484863     -0.908555031    
   4.91481400      0.647047520      -4.00000000       448.953949     -0.841531515    
   4.91481400      0.647047520      -3.00000000       448.953949     -0.841531515    
   5.00000000       0.00000000      -3.00000000       448.953949     -0.841531515    
   5.00000000       0.00000000      -4.00000000       448.953949     -0.841531515    
   4.91481400      0.647047520      -3.00000000       506.751007     -0.780741692    
   4.91481400      0.647047520      -2.00000000       506.751007     -0.780741692    
   5.00000000       0.00000000      -2.00000000       506.751007     -0.780741692    
   5.00000000       0.00000000      -3.00000000       506.751007     -0.780741692    
   4.91481400      0.647047520      -2.00000000       581.454285     -0.731492996    
   4.91481400      0.647047520      -1.00000000       581.454285     -0.731492996    
   5.00000000       0.00000000      -1.00000000       581.454285     -0.731492996    
   5.00000000       0.00000000      -2.00000000       581.454285     -0.731492996    
   4.91481400      0.647047520      -1.00000000       678.668030     -0.699546933    
   4.91481400      0.647047520       0.00000000       678.668030     -0.699546933    
   5.00000000       0.00000000       0.00000000       678.668030     -0.699546933    
   5.00000000       0.00000000      -1.00000000       678.668030     -0.699546933    
   4.33012676       2.50000000      -10.0000000       1215.52637      -1.10987103    
   4.33012676       2.50000000      -9.00000000       1215.52637      -1.10987103    
   4.57987785       1.89704800      -9.00000000       1215.52637      -1.10987103    
   4.57987785       1.89704800      -10.0000000       1215.52637      -1.10987103    
   4.33012676       2.50000000      -9.00000000       1579.25757      -1.10315716    
   4.33012676       2.50000000      -8.00000000       1579.25757      -1.10315716    
   4.57987785       1.89704800      -8.00000000       1579.25757      -1.10315716    
   4.57987785       1.89704800      -9.00000000       1579.25757      -1.10315716    
   4.33012676       2.50000000      -8.00000000       1817.46240      -1.06046593    
   4.33012676       2.50000000      -7.00000000       1817.46240      -1.06046593    
   4.57987785       1.89704800      -7.00000000       1817.46240      -1.06046593    
   4.57987785       1.89704800      -8.00000000       1817.46240      -1.06046593    
   4.33012676       2.50000000      -7.00000000       2023.11499      -1.00331247    
   4.33012676       2.50000000      -6.00000000       2023.11499      -1.00331247    
   4.57987785       1.89704800      -6.00000000       2023.11499      -1.00331247    
   4.57987785       1.89704800      -7.00000000       2023.11499      -1.00331247    
   4.33012676       2.50000000      -6.00000000       2233.99438     -0.938222051    
   4.33012676       2.50000000      -5.00000000       2233.99438     -0.938222051    
   4.57987785       1.89704800      -5.00000000       2233.99438     -0.938222051    
   4.57987785       1.89704800      -6.00000000       2233.99438     -0.938222051    
   4.33012676       2.50000000      -5.00000000       2477.14282     -0.870228469    
   4.33012676       2.50000000      -4.00000000       2477.14282     -0.870228469    
   4.57987785       1.89704800      -4.00000000       2477.14282     -0.870228469    
   4.57987785       1.89704800      -5.00000000       2477.14282     -0.870228469    
   4.33012676       2.50000000      -4.00000000       2776.21387     -0.804420590    
   4.33012676       2.50000000      -3.00000000       2776.21387     -0.804420590    
   4.57987785       1.89704800      -3.00000000       2776.21387     -0.804420590    
   4.57987785       1.89704800      -4.00000000       2776.21387     -0.804420590    
   4.33012676       2.50000000      -3.00000000       3154.54858     -0.745867372    
   4.33012676       2.50000000      -2.00000000       3154.54858     -0.745867372    
   4.57987785       1.89704800      -2.00000000       3154.54858     -0.745867372    
   4.57987785       1.89704800      -3.00000000       3154.54858     -0.745867372    
   4.33012676       2.50000000      -2.00000000       3640.55957     -0.699756980    
   4.33012676       2.50000000      -1.00000000       3640.55957     -0.699756980    
   4.57987785       1.89704800      -1.00000000       3640.55957     -0.699756980    
   4.57987785       1.89704800      -2.00000000       3640.55957     -0.699756980    
   4.33012676       2.50000000      -1.00000000       4271.61572     -0.671709776    
   4.33012676       2.50000000       0.00000000       4271.61572     -0.671709776    
   4.57987785       1.89704800       0.00000000       4271.61572     -0.671709776    
   4.57987785       1.89704800      -1.00000000       4271.61572     -0.671709776    
   4.57987785       1.89704800      -10.0000000       924.659180      -1.12558448    
   4.57987785       1.89704800      -9.00000000       924.659180      -1.12558448    
   4.82962894       1.29409504      -9.00000000       924.659180      -1.12558448    
   4.82962894       1.29409504      -10.0000000       924.659180      -1.12558448    
   4.57987785       1.89704800      -9.00000000       1194.50342      -1.11587727    
   4.57987785       1.89704800      -8.00000000       1194.50342      -1.11587727    
   4.82962894       1.29409504      -8.00000000       1194.50342      -1.11587727    
   4.82962894       1.29409504      -9.00000000       1194.50342      -1.11587727    
   4.57987785       1.89704800      -8.00000000       1369.60510      -1.07251430    
   4.57987785       1.89704800      -7.00000000       1369.60510      -1.07251430    
   4.82962894       1.29409504      -7.00000000       1369.60510      -1.07251430    
   4.82962894       1.29409504      -8.00000000       1369.60510      -1.07251430    
   4.57987785       1.89704800      -7.00000000       1520.36523      -1.01527691    
   4.57987785       1.89704800      -6.00000000       1520.36523      -1.01527691    
   4.82962894       1.29409504      -6.00000000       1520.36523      -1.01527691    
   4.82962894       1.29409504      -7.00000000       1520.36523      -1.01527691    
   4.57987785       1.89704800      -6.00000000       1674.65320     -0.950176656    
   4.57987785       1.89704800      -5.00000000       1674.65320     -0.950176656    
   4.82962894       1.29409504      -5.00000000       1674.65320     -0.950176656    
   4.82962894       1.29409504      -6.00000000       1674.65320     -0.950176656    
   4.57987785       1.89704800      -5.00000000       1852.58655     -0.882031322    
   4.57987785       1.89704800      -4.00000000       1852.58655     -0.882031322    
   4.82962894       1.29409504      -4.00000000       1852.58655     -0.882031322    
   4.82962894       1.29409504      -5.00000000       1852.58655     -0.882031322    
   4.57987785       1.89704800      -4.00000000       2071.69019     -0.815790713    
   4.57987785       1.89704800      -3.00000000       2071.69019     -0.815790713    
   4.82962894       1.29409504      -3.00000000       2071.69019     -0.815790713    
   4.82962894       1.29409504      -4.00000000       2071.69019     -0.815790713    
   4.57987785       1.89704800      -3.00000000       2349.26416     -0.756505370    
   4.57987785       1.89704800      -2.00000000       2349.26416     -0.756505370    
   4.82962894       1.29409504      -2.00000000       2349.26416     -0.756505370    
   4.82962894       1.29409504      -3.00000000       2349.26416     -0.756505370    
   4.57987785       1.89704800      -2.00000000       2706.50342     -0.709399641    
   4.57987785       1.89704800      -1.00000000       2706.50342     -0.709399641    
   4.82962894       1.29409504      -1.00000000       2706.50342     -0.709399641    
   4.82962894       1.29409504      -2.00000000       2706.50342     -0.709399641    
   4.57987785       1.89704800      -1.00000000       3170.66528     -0.680135667    
   4.57987785       1.89704800       0.00000000       3170.66528     -0.680135667    
   4.82962894       1.29409504       0.00000000       3170.66528     -0.680135667    
   4.82962894       1.29409504      -1.00000000       3170.66528     -0.680135667    
   3.53553391       3.53553391      -10.0000000       1827.12402      -1.11278164    
   3.53553391       3.53553391      -9.00000000       1827.12402      -1.11278164    
   3.93283010       3.01776695      -9.00000000       1827.12402      -1.11278164    
   3.93283010       3.01776695      -10.0000000       1827.12402      -1.11278164    
   3.53553391       3.53553391      -9.00000000       2371.37744      -1.10550189    
   3.53553391       3.53553391      -8.00000000       2371.37744      -1.10550189    
   3.93283010       3.01776695      -8.00000000       2371.37744      -1.10550189    
   3.93283010       3.01776695      -9.00000000       2371.37744      -1.10550189    
   3.53553391       3.53553391      -8.00000000       2727.20728      -1.06268060    
   3.53553391       3.53553391      -7.00000000       2727.20728      -1.06268060    
   3.93283010       3.01776695      -7.00000000       2727.20728      -1.06268060    
   3.93283010       3.01776695      -8.00000000       2727.20728      -1.06268060    
   3.53553391       3.53553391      -7.00000000       3034.25928      -1.00550687    
   3.53553391       3.53553391      -6.00000000       3034.25928      -1.00550687    
   3.93283010       3.01776695      -6.00000000       3034.25928      -1.00550687    
   3.93283010       3.01776695      -7.00000000       3034.25928      -1.00550687    
   3.53553391       3.53553391      -6.00000000       3349.00195     -0.940410256    
   3.53553391       3.53553391      -5.00000000       3349.00195     -0.940410256    
   3.93283010       3.01776695      -5.00000000       3349.00195     -0.940410256    
   3.93283010       3.01776695      -6.00000000       3349.00195     -0.940410256    
   3.53553391       3.53553391      -5.00000000       3711.92334     -0.872384965    
   3.53553391       3.53553391      -4.00000000       3711.92334     -0.872384965    
   3.93283010       3.01776695      -4.00000000       3711.92334     -0.872384965    
   3.93283010       3.01776695      -5.00000000       3711.92334     -0.872384965    
   3.53553391       3.53553391      -4.00000000       4158.40332     -0.806494296    
   3.53553391       3.53553391      -3.00000000       4158.40332     -0.806494296    
   3.93283010       3.01776695      -3.00000000       4158.40332     -0.806494296    
   3.93283010       3.01776695      -4.00000000       4158.40332     -0.806494296    
   3.53553391       3.53553391      -3.00000000       4723.36865     -0.747804821    
   3.53553391       3.53553391      -2.00000000       4723.36865     -0.747804821    
   3.93283010       3.01776695      -2.00000000       4723.36865     -0.747804821    
   3.93283010       3.01776695      -3.00000000       4723.36865     -0.747804821    
   3.53553391       3.53553391      -2.00000000       5449.36963     -0.701510072    
   3.53553391       3.53553391      -1.00000000       5449.36963     -0.701510072    
   3.93283010       3.01776695      -1.00000000       5449.36963     -0.701510072    
   3.93283010       3.01776695      -2.00000000       5449.36963     -0.701510072    
   3.53553391       3.53553391      -1.00000000       6392.15186     -0.673239172    
   3.53553391       3.53553391       0.00000000       6392.15186     -0.673239172    
   3.93283010       3.01776695       0.00000000       6392.15186     -0.673239172    
   3.93283010       3.01776695      -1.00000000       6392.15186     -0.673239172    
   3.93283010       3.01776695      -10.0000000       1577.34741      -1.12115204    
   3.93283010       3.01776695      -9.00000000       1577.34741      -1.12115204    
   4.33012676       2.50000000      -9.00000000       1577.34741      -1.12115204    
   4.33012676       2.50000000      -10.0000000       1577.34741      -1.12115204    
   3.93283010       3.01776695      -9.00000000       2040.97815      -1.11227477    
   3.93283010       3.01776695      -8.00000000       2040.97815      -1.11227477    
   4.33012676       2.50000000      -8.00000000       2040.97815      -1.11227477    
   4.33012676       2.50000000      -9.00000000       2040.97815      -1.11227477    
   3.93283010       3.01776695      -8.00000000       2342.62207      -1.06909251    
   3.93283010       3.01776695      -7.00000000       2342.62207      -1.06909251    
   4.33012676       2.50000000      -7.00000000       2342.62207      -1.06909251    
   4.33012676       2.50000000      -8.00000000       2342.62207      -1.06909251    
   3.93283010       3.01776695      -7.00000000       2602.53320      -1.01187360    
   3.93283010       3.01776695      -6.00000000       2602.53320      -1.01187360    
   4.33012676       2.50000000      -6.00000000       2602.53320      -1.01187360    
   4.33012676       2.50000000      -7.00000000       2602.53320      -1.01187360    
   3.93283010       3.01776695      -6.00000000       2868.68164     -0.946768343    
   3.93283010       3.01776695      -5.00000000       2868.68164     -0.946768343    
   4.33012676       2.50000000      -5.00000000       2868.68164     -0.946768343    
   4.33012676       2.50000000      -6.00000000       2868.68164     -0.946768343    
   3.93283010       3.01776695      -5.00000000       3175.59741     -0.878661335    
   3.93283010       3.01776695      -4.00000000       3175.59741     -0.878661335    
   4.33012676       2.50000000      -4.00000000       3175.59741     -0.878661335    
   4.33012676       2.50000000      -5.00000000       3175.59741     -0.878661335    
   3.93283010       3.01776695      -4.00000000       3553.41138     -0.812539041    
   3.93283010       3.01776695      -3.00000000       3553.41138     -0.812539041    
   4.33012676       2.50000000      -3.00000000       3553.41138     -0.812539041    
   4.33012676       2.50000000      -4.00000000       3553.41138     -0.812539041    
   3.93283010       3.01776695      -3.00000000       4031.85474     -0.753458738    
   3.93283010       3.01776695      -2.00000000       4031.85474     -0.753458738    
   4.33012676       2.50000000      -2.00000000       4031.85474     -0.753458738    
   4.33012676       2.50000000      -3.00000000       4031.85474     -0.753458738    
   3.93283010       3.01776695      -2.00000000       4647.27100     -0.706634462    
   3.93283010       3.01776695      -1.00000000       4647.27100     -0.706634462    
   4.33012676       2.50000000      -1.00000000       4647.27100     -0.706634462    
   4.33012676       2.50000000      -2.00000000       4647.27100     -0.706634462    
   3.93283010       3.01776695      -1.00000000       5446.74219     -0.677716792    
   3.93283010       3.01776695       0.00000000       5446.74219     -0.677716792    
   4.33012676       2.50000000       0.00000000       5446.74219     -0.677716792    
   4.33012676       2.50000000      -1.00000000       5446.74219     -0.677716792    
   2.50000000       4.33012676      -10.0000000       2314.21631      -1.11431015    
   2.50000000       4.33012676      -9.00000000       2314.21631      -1.11431015    
   3.01776695       3.93283010      -9.00000000       2314.21631      -1.11431015    
   3.01776695       3.93283010      -10.0000000       2314.21631      -1.11431015    
   2.50000000       4.33012676      -9.00000000       3001.90063      -1.10673606    
   2.50000000       4.33012676      -8.00000000       3001.90063      -1.10673606    
   3.01776695       3.93283010      -8.00000000       3001.90063      -1.10673606    
   3.01776695       3.93283010      -9.00000000       3001.90063      -1.10673606    
   2.50000000       4.33012676      -8.00000000       3451.10840      -1.06384718    
   2.50000000       4.33012676      -7.00000000       3451.10840      -1.06384718    
   3.01776695       3.93283010      -7.00000000       3451.10840      -1.06384718    
   3.01776695       3.93283010      -8.00000000       3451.10840      -1.06384718    
   2.50000000       4.33012676      -7.00000000       3838.62988      -1.00666392    
   2.50000000       4.33012676      -6.00000000       3838.62988      -1.00666392    
   3.01776695       3.93283010      -6.00000000       3838.62988      -1.00666392    
   3.01776695       3.93283010      -7.00000000       3838.62988      -1.00666392    
   2.50000000       4.33012676      -6.00000000       4235.79248     -0.941564918    
   2.50000000       4.33012676      -5.00000000       4235.79248     -0.941564918    
   3.01776695       3.93283010      -5.00000000       4235.79248     -0.941564918    
   3.01776695       3.93283010      -6.00000000       4235.79248     -0.941564918    
   2.50000000       4.33012676      -5.00000000       4693.75000     -0.873522997    
   2.50000000       4.33012676      -4.00000000       4693.75000     -0.873522997    
   3.01776695       3.93283010      -4.00000000       4693.75000     -0.873522997    
   3.01776695       3.93283010      -5.00000000       4693.75000     -0.873522997    
   2.50000000       4.33012676      -4.00000000       5257.21533     -0.807589412    
   2.50000000       4.33012676      -3.00000000       5257.21533     -0.807589412    
   3.01776695       3.93283010      -3.00000000       5257.21533     -0.807589412    
   3.01776695       3.93283010      -4.00000000       5257.21533     -0.807589412    
   2.50000000       4.33012676      -3.00000000       5970.31543     -0.748827577    
   2.50000000       4.33012676      -2.00000000       5970.31543     -0.748827577    
   3.01776695       3.93283010      -2.00000000       5970.31543     -0.748827577    
   3.01776695       3.93283010      -3.00000000       5970.31543     -0.748827577    
   2.50000000       4.33012676      -2.00000000       6886.81885     -0.702436388    
   2.50000000       4.33012676      -1.00000000       6886.81885     -0.702436388    
   3.01776695       3.93283010      -1.00000000       6886.81885     -0.702436388    
   3.01776695       3.93283010      -2.00000000       6886.81885     -0.702436388    
   2.50000000       4.33012676      -1.00000000       8077.07861     -0.674048483    
   2.50000000       4.33012676       0.00000000       8077.07861     -0.674048483    
   3.01776695       3.93283010       0.00000000       8077.07861     -0.674048483    
   3.01776695       3.93283010      -1.00000000       8077.07861     -0.674048483    
   3.01776695       3.93283010      -10.0000000       2122.55273      -1.11922085    
   3.01776695       3.93283010      -9.00000000       2122.55273      -1.11922085    
   3.53553391       3.53553391      -9.00000000       2122.55273      -1.11922085    
   3.53553391       3.53553391      -10.0000000       2122.55273      -1.11922085    
   3.01776695       3.93283010      -9.00000000       2748.37280      -1.11070907    
   3.01776695       3.93283010      -8.00000000       2748.37280      -1.11070907    
   3.53553391       3.53553391      -8.00000000       2748.37280      -1.11070907    
   3.53553391       3.53553391      -9.00000000       2748.37280      -1.11070907    
   3.01776695       3.93283010      -8.00000000       3156.00146      -1.06760812    
   3.01776695       3.93283010      -7.00000000       3156.00146      -1.06760812    
   3.53553391       3.53553391      -7.00000000       3156.00146      -1.06760812    
   3.53553391       3.53553391      -8.00000000       3156.00146      -1.06760812    
   3.01776695       3.93283010      -7.00000000       3507.35620      -1.01039708    
   3.01776695       3.93283010      -6.00000000       3507.35620      -1.01039708    
   3.53553391       3.53553391      -6.00000000       3507.35620      -1.01039708    
   3.53553391       3.53553391      -7.00000000       3507.35620      -1.01039708    
   3.01776695       3.93283010      -6.00000000       3867.22534     -0.945294023    
   3.01776695       3.93283010      -5.00000000       3867.22534     -0.945294023    
   3.53553391       3.53553391      -5.00000000       3867.22534     -0.945294023    
   3.53553391       3.53553391      -6.00000000       3867.22534     -0.945294023    
   3.01776695       3.93283010      -5.00000000       4282.21191     -0.877203524    
   3.01776695       3.93283010      -4.00000000       4282.21191     -0.877203524    
   3.53553391       3.53553391      -4.00000000       4282.21191     -0.877203524    
   3.53553391       3.53553391      -5.00000000       4282.21191     -0.877203524    
   3.01776695       3.93283010      -4.00000000       4792.98682     -0.811134100    
   3.01776695       3.93283010      -3.00000000       4792.98682     -0.811134100    
   3.53553391       3.53553391      -3.00000000       4792.98682     -0.811134100    
   3.53553391       3.53553391      -4.00000000       4792.98682     -0.811134100    
   3.01776695       3.93283010      -3.00000000       5439.68848     -0.752142906    
   3.01776695       3.93283010      -2.00000000       5439.68848     -0.752142906    
   3.53553391       3.53553391      -2.00000000       5439.68848     -0.752142906    
   3.53553391       3.53553391      -3.00000000       5439.68848     -0.752142906    
   3.01776695       3.93283010      -2.00000000       6271.34668     -0.705441654    
   3.01776695       3.93283010      -1.00000000       6271.34668     -0.705441654    
   3.53553391       3.53553391      -1.00000000       6271.34668     -0.705441654    
   3.53553391       3.53553391      -2.00000000       6271.34668     -0.705441654    
   3.01776695       3.93283010      -1.00000000       7351.63623     -0.676673830    
   3.01776695       3.93283010       0.00000000       7351.63623     -0.676673830    
   3.53553391       3.53553391       0.00000000       7351.63623     -0.676673830    
   3.53553391       3.53553391      -1.00000000       7351.63623     -0.676673830    
   1.29409504       4.82962894      -10.0000000       2643.60181      -1.11536694    
   1.29409504       4.82962894      -9.00000000       2643.60181      -1.11536694    
   1.89704800       4.57987785      -9.00000000       2643.60181      -1.11536694    
   1.89704800       4.57987785      -10.0000000       2643.60181      -1.11536694    
   1.29409504       4.82962894      -9.00000000       3427.84985      -1.10758972    
   1.29409504       4.82962894      -8.00000000       3427.84985      -1.10758972    
   1.89704800       4.57987785      -8.00000000       3427.84985      -1.10758972    
   1.89704800       4.57987785      -9.00000000       3427.84985      -1.10758972    
   1.29409504       4.82962894      -8.00000000       3939.82153      -1.06465435    
   1.29409504       4.82962894      -7.00000000       3939.82153      -1.06465435    
   1.89704800       4.57987785      -7.00000000       3939.82153      -1.06465435    
   1.89704800       4.57987785      -8.00000000       3939.82153      -1.06465435    
   1.29409504       4.82962894      -7.00000000       4381.41016      -1.00746417    
   1.29409504       4.82962894      -6.00000000       4381.41016      -1.00746417    
   1.89704800       4.57987785      -6.00000000       4381.41016      -1.00746417    
   1.89704800       4.57987785      -7.00000000       4381.41016      -1.00746417    
   1.29409504       4.82962894      -6.00000000       4833.92285     -0.942363918    
   1.29409504       4.82962894      -5.00000000       4833.92285     -0.942363918    
   1.89704800       4.57987785      -5.00000000       4833.92285     -0.942363918    
   1.89704800       4.57987785      -6.00000000       4833.92285     -0.942363918    
   1.29409504       4.82962894      -5.00000000       5355.71143     -0.874311507    
   1.29409504       4.82962894      -4.00000000       5355.71143     -0.874311507    
   1.89704800       4.57987785      -4.00000000       5355.71143     -0.874311507    
   1.89704800       4.57987785      -5.00000000       5355.71143     -0.874311507    
   1.29409504       4.82962894      -4.00000000       5997.76123     -0.808348596    
   1.29409504       4.82962894      -3.00000000       5997.76123     -0.808348596    
   1.89704800       4.57987785      -3.00000000       5997.76123     -0.808348596    