 VARIABLES="X" "Y" "Z" "abs(p) (Pa)" "angle(p) (rad)"
ZONE N=   1080,E =     600, F=FEPOINT, ET=QUADRILATERAL
   4.82962894       1.29409504      -10.0000000       1452.57068      0.589667439    
   4.82962894       1.29409504      -9.00000000       1452.57068      0.589667439    
   4.91481400      0.647047520      -9.00000000       1452.57068      0.589667439    
   4.91481400      0.647047520      -10.0000000       1452.57068      0.589667439    
   4.82962894       1.29409504      -9.00000000       2460.29639      0.665606678    
   4.82962894       1.29409504      -8.00000000       2460.29639      0.665606678    
   4.91481400      0.647047520      -8.00000000       2460.29639      0.665606678    
   4.91481400      0.647047520      -9.00000000       2460.29639      0.665606678    
   4.82962894       1.29409504      -8.00000000       2897.25464      -1.58541277E-02
   4.82962894       1.29409504      -7.00000000       2897.25464      -1.58541277E-02
   4.91481400      0.647047520      -7.00000000       2897.25464      -1.58541277E-02
   4.91481400      0.647047520      -8.00000000       2897.25464      -1.58541277E-02
   4.82962894       1.29409504      -7.00000000       4827.97217     -0.486361176    
   4.82962894       1.29409504      -6.00000000       4827.97217     -0.486361176    
   4.91481400      0.647047520      -6.00000000       4827.97217     -0.486361176    
   4.91481400      0.647047520      -7.00000000       4827.97217     -0.486361176    
   4.82962894       1.29409504      -6.00000000       7737.60059     -0.627222896    
   4.82962894       1.29409504      -5.00000000       7737.60059     -0.627222896    
   4.91481400      0.647047520      -5.00000000       7737.60059     -0.627222896    
   4.91481400      0.647047520      -6.00000000       7737.60059     -0.627222896    
   4.82962894       1.29409504      -5.00000000       11254.6348     -0.621004224    
   4.82962894       1.29409504      -4.00000000       11254.6348     -0.621004224    
   4.91481400      0.647047520      -4.00000000       11254.6348     -0.621004224    
   4.91481400      0.647047520      -5.00000000       11254.6348     -0.621004224    
   4.82962894       1.29409504      -4.00000000       15591.5332     -0.543178141    
   4.82962894       1.29409504      -3.00000000       15591.5332     -0.543178141    
   4.91481400      0.647047520      -3.00000000       15591.5332     -0.543178141    
   4.91481400      0.647047520      -4.00000000       15591.5332     -0.543178141    
   4.82962894       1.29409504      -3.00000000       21454.3125     -0.433056951    
   4.82962894       1.29409504      -2.00000000       21454.3125     -0.433056951    
   4.91481400      0.647047520      -2.00000000       21454.3125     -0.433056951    
   4.91481400      0.647047520      -3.00000000       21454.3125     -0.433056951    
   4.82962894       1.29409504      -2.00000000       29959.5469     -0.324884146    
   4.82962894       1.29409504      -1.00000000       29959.5469     -0.324884146    
   4.91481400      0.647047520      -1.00000000       29959.5469     -0.324884146    
   4.91481400      0.647047520      -2.00000000       29959.5469     -0.324884146    
   4.82962894       1.29409504      -1.00000000       42709.3750     -0.250203639    
   4.82962894       1.29409504       0.00000000       42709.3750     -0.250203639    
   4.91481400      0.647047520       0.00000000       42709.3750     -0.250203639    
   4.91481400      0.647047520      -1.00000000       42709.3750     -0.250203639    
   4.91481400      0.647047520      -10.0000000       1469.37390      0.582063735    
   4.91481400      0.647047520      -9.00000000       1469.37390      0.582063735    
   5.00000000       0.00000000      -9.00000000       1469.37390      0.582063735    
   5.00000000       0.00000000      -10.0000000       1469.37390      0.582063735    
   4.91481400      0.647047520      -9.00000000       2496.54517      0.663244069    
   4.91481400      0.647047520      -8.00000000       2496.54517      0.663244069    
   5.00000000       0.00000000      -8.00000000       2496.54517      0.663244069    
   5.00000000       0.00000000      -9.00000000       2496.54517      0.663244069    
   4.91481400      0.647047520      -8.00000000       2945.36792      -1.57726090E-02
   4.91481400      0.647047520      -7.00000000       2945.36792      -1.57726090E-02
   5.00000000       0.00000000      -7.00000000       2945.36792      -1.57726090E-02
   5.00000000       0.00000000      -8.00000000       2945.36792      -1.57726090E-02
   4.91481400      0.647047520      -7.00000000       4904.40137     -0.484916568    
   4.91481400      0.647047520      -6.00000000       4904.40137     -0.484916568    
   5.00000000       0.00000000      -6.00000000       4904.40137     -0.484916568    
   5.00000000       0.00000000      -7.00000000       4904.40137     -0.484916568    
   4.91481400      0.647047520      -6.00000000       7856.77295     -0.625585973    
   4.91481400      0.647047520      -5.00000000       7856.77295     -0.625585973    
   5.00000000       0.00000000      -5.00000000       7856.77295     -0.625585973    
   5.00000000       0.00000000      -6.00000000       7856.77295     -0.625585973    
   4.91481400      0.647047520      -5.00000000       11427.7207     -0.619314015    
   4.91481400      0.647047520      -4.00000000       11427.7207     -0.619314015    
   5.00000000       0.00000000      -4.00000000       11427.7207     -0.619314015    
   5.00000000       0.00000000      -5.00000000       11427.7207     -0.619314015    
   4.91481400      0.647047520      -4.00000000       15833.9883     -0.541459680    
   4.91481400      0.647047520      -3.00000000       15833.9883     -0.541459680    
   5.00000000       0.00000000      -3.00000000       15833.9883     -0.541459680    
   5.00000000       0.00000000      -4.00000000       15833.9883     -0.541459680    
   4.91481400      0.647047520      -3.00000000       21793.8633     -0.431399643    
   4.91481400      0.647047520      -2.00000000       21793.8633     -0.431399643    
   5.00000000       0.00000000      -2.00000000       21793.8633     -0.431399643    
   5.00000000       0.00000000      -3.00000000       21793.8633     -0.431399643    
   4.91481400      0.647047520      -2.00000000       30441.7246     -0.323391855    
   4.91481400      0.647047520      -1.00000000       30441.7246     -0.323391855    
   5.00000000       0.00000000      -1.00000000       30441.7246     -0.323391855    
   5.00000000       0.00000000      -2.00000000       30441.7246     -0.323391855    
   4.91481400      0.647047520      -1.00000000       43405.1445     -0.248954773    
   4.91481400      0.647047520       0.00000000       43405.1445     -0.248954773    
   5.00000000       0.00000000       0.00000000       43405.1445     -0.248954773    
   5.00000000       0.00000000      -1.00000000       43405.1445     -0.248954773    
   4.33012676       2.50000000      -10.0000000       1336.86926      0.598028481    
   4.33012676       2.50000000      -9.00000000       1336.86926      0.598028481    
   4.57987785       1.89704800      -9.00000000       1336.86926      0.598028481    
   4.57987785       1.89704800      -10.0000000       1336.86926      0.598028481    
   4.33012676       2.50000000      -9.00000000       2256.39551      0.668219686    
   4.33012676       2.50000000      -8.00000000       2256.39551      0.668219686    
   4.57987785       1.89704800      -8.00000000       2256.39551      0.668219686    
   4.57987785       1.89704800      -9.00000000       2256.39551      0.668219686    
   4.33012676       2.50000000      -8.00000000       2651.69873      -1.59465428E-02
   4.33012676       2.50000000      -7.00000000       2651.69873      -1.59465428E-02
   4.57987785       1.89704800      -7.00000000       2651.69873      -1.59465428E-02
   4.57987785       1.89704800      -8.00000000       2651.69873      -1.59465428E-02
   4.33012676       2.50000000      -7.00000000       4422.53320     -0.487962902    
   4.33012676       2.50000000      -6.00000000       4422.53320     -0.487962902    
   4.57987785       1.89704800      -6.00000000       4422.53320     -0.487962902    
   4.57987785       1.89704800      -7.00000000       4422.53320     -0.487962902    
   4.33012676       2.50000000      -6.00000000       7091.14990     -0.629036903    
   4.33012676       2.50000000      -5.00000000       7091.14990     -0.629036903    
   4.57987785       1.89704800      -5.00000000       7091.14990     -0.629036903    
   4.57987785       1.89704800      -6.00000000       7091.14990     -0.629036903    
   4.33012676       2.50000000      -5.00000000       10314.6084     -0.622876465    
   4.33012676       2.50000000      -4.00000000       10314.6084     -0.622876465    
   4.57987785       1.89704800      -4.00000000       10314.6084     -0.622876465    
   4.57987785       1.89704800      -5.00000000       10314.6084     -0.622876465    
   4.33012676       2.50000000      -4.00000000       14286.5918     -0.545082927    
   4.33012676       2.50000000      -3.00000000       14286.5918     -0.545082927    
   4.57987785       1.89704800      -3.00000000       14286.5918     -0.545082927    
   4.57987785       1.89704800      -4.00000000       14286.5918     -0.545082927    
   4.33012676       2.50000000      -3.00000000       19652.7539     -0.434895366    
   4.33012676       2.50000000      -2.00000000       19652.7539     -0.434895366    
   4.57987785       1.89704800      -2.00000000       19652.7539     -0.434895366    
   4.57987785       1.89704800      -3.00000000       19652.7539     -0.434895366    
   4.33012676       2.50000000      -2.00000000       27435.7617     -0.326540381    
   4.33012676       2.50000000      -1.00000000       27435.7617     -0.326540381    
   4.57987785       1.89704800      -1.00000000       27435.7617     -0.326540381    
   4.57987785       1.89704800      -2.00000000       27435.7617     -0.326540381    
   4.33012676       2.50000000      -1.00000000       39103.0625     -0.251590967    
   4.33012676       2.50000000       0.00000000       39103.0625     -0.251590967    
   4.57987785       1.89704800       0.00000000       39103.0625     -0.251590967    
   4.57987785       1.89704800      -1.00000000       39103.0625     -0.251590967    
   4.57987785       1.89704800      -10.0000000       1386.13293      0.574100673    
   4.57987785       1.89704800      -9.00000000       1386.13293      0.574100673    
   4.82962894       1.29409504      -9.00000000       1386.13293      0.574100673    
   4.82962894       1.29409504      -10.0000000       1386.13293      0.574100673    
   4.57987785       1.89704800      -9.00000000       2362.67578      0.660786688    
   4.57987785       1.89704800      -8.00000000       2362.67578      0.660786688    
   4.82962894       1.29409504      -8.00000000       2362.67578      0.660786688    
   4.82962894       1.29409504      -9.00000000       2362.67578      0.660786688    
   4.57987785       1.89704800      -8.00000000       2792.75830      -1.56871621E-02
   4.57987785       1.89704800      -7.00000000       2792.75830      -1.56871621E-02
   4.82962894       1.29409504      -7.00000000       2792.75830      -1.56871621E-02
   4.82962894       1.29409504      -8.00000000       2792.75830      -1.56871621E-02
   4.57987785       1.89704800      -7.00000000       4646.61865     -0.483416378    
   4.57987785       1.89704800      -6.00000000       4646.61865     -0.483416378    
   4.82962894       1.29409504      -6.00000000       4646.61865     -0.483416378    
   4.82962894       1.29409504      -7.00000000       4646.61865     -0.483416378    
   4.57987785       1.89704800      -6.00000000       7440.54297     -0.623883903    
   4.57987785       1.89704800      -5.00000000       7440.54297     -0.623883903    
   4.82962894       1.29409504      -5.00000000       7440.54297     -0.623883903    
   4.82962894       1.29409504      -6.00000000       7440.54297     -0.623883903    
   4.57987785       1.89704800      -5.00000000       10822.0547     -0.617557168    
   4.57987785       1.89704800      -4.00000000       10822.0547     -0.617557168    
   4.82962894       1.29409504      -4.00000000       10822.0547     -0.617557168    
   4.82962894       1.29409504      -5.00000000       10822.0547     -0.617557168    
   4.57987785       1.89704800      -4.00000000       14997.4307     -0.539673865    
   4.57987785       1.89704800      -3.00000000       14997.4307     -0.539673865    
   4.82962894       1.29409504      -3.00000000       14997.4307     -0.539673865    
   4.82962894       1.29409504      -4.00000000       14997.4307     -0.539673865    
   4.57987785       1.89704800      -3.00000000       20648.2598     -0.429677457    
   4.57987785       1.89704800      -2.00000000       20648.2598     -0.429677457    
   4.82962894       1.29409504      -2.00000000       20648.2598     -0.429677457    
   4.82962894       1.29409504      -3.00000000       20648.2598     -0.429677457    
   4.57987785       1.89704800      -2.00000000       28849.4141     -0.321842134    
   4.57987785       1.89704800      -1.00000000       28849.4141     -0.321842134    
   4.82962894       1.29409504      -1.00000000       28849.4141     -0.321842134    
   4.82962894       1.29409504      -2.00000000       28849.4141     -0.321842134    
   4.57987785       1.89704800      -1.00000000       41143.0273     -0.247658163    
   4.57987785       1.89704800       0.00000000       41143.0273     -0.247658163    
   4.82962894       1.29409504       0.00000000       41143.0273     -0.247658163    
   4.82962894       1.29409504      -1.00000000       41143.0273     -0.247658163    
   3.53553391       3.53553391      -10.0000000       1130.17834      0.608773470    
   3.53553391       3.53553391      -9.00000000       1130.17834      0.608773470    
   3.93283010       3.01776695      -9.00000000       1130.17834      0.608773470    
   3.93283010       3.01776695      -10.0000000       1130.17834      0.608773470    
   3.53553391       3.53553391      -9.00000000       1898.74377      0.671605110    
   3.53553391       3.53553391      -8.00000000       1898.74377      0.671605110    
   3.93283010       3.01776695      -8.00000000       1898.74377      0.671605110    
   3.93283010       3.01776695      -9.00000000       1898.74377      0.671605110    
   3.53553391       3.53553391      -8.00000000       2225.43359      -1.60648860E-02
   3.53553391       3.53553391      -7.00000000       2225.43359      -1.60648860E-02
   3.93283010       3.01776695      -7.00000000       2225.43359      -1.60648860E-02
   3.93283010       3.01776695      -8.00000000       2225.43359      -1.60648860E-02
   3.53553391       3.53553391      -7.00000000       3715.72119     -0.490043998    
   3.53553391       3.53553391      -6.00000000       3715.72119     -0.490043998    
   3.93283010       3.01776695      -6.00000000       3715.72119     -0.490043998    
   3.93283010       3.01776695      -7.00000000       3715.72119     -0.490043998    
   3.53553391       3.53553391      -6.00000000       5961.47705     -0.631391346    
   3.53553391       3.53553391      -5.00000000       5961.47705     -0.631391346    
   3.93283010       3.01776695      -5.00000000       5961.47705     -0.631391346    
   3.93283010       3.01776695      -6.00000000       5961.47705     -0.631391346    
   3.53553391       3.53553391      -5.00000000       8671.69629     -0.625306010    
   3.53553391       3.53553391      -4.00000000       8671.69629     -0.625306010    
   3.93283010       3.01776695      -4.00000000       8671.69629     -0.625306010    
   3.93283010       3.01776695      -5.00000000       8671.69629     -0.625306010    
   3.53553391       3.53553391      -4.00000000       12008.1045     -0.547555208    
   3.53553391       3.53553391      -3.00000000       12008.1045     -0.547555208    
   3.93283010       3.01776695      -3.00000000       12008.1045     -0.547555208    
   3.93283010       3.01776695      -4.00000000       12008.1045     -0.547555208    
   3.53553391       3.53553391      -3.00000000       16511.9863     -0.437284470    
   3.53553391       3.53553391      -2.00000000       16511.9863     -0.437284470    
   3.93283010       3.01776695      -2.00000000       16511.9863     -0.437284470    
   3.93283010       3.01776695      -3.00000000       16511.9863     -0.437284470    
   3.53553391       3.53553391      -2.00000000       23042.3711     -0.328693211    
   3.53553391       3.53553391      -1.00000000       23042.3711     -0.328693211    
   3.93283010       3.01776695      -1.00000000       23042.3711     -0.328693211    
   3.93283010       3.01776695      -2.00000000       23042.3711     -0.328693211    
   3.53553391       3.53553391      -1.00000000       32832.0625     -0.253394753    
   3.53553391       3.53553391       0.00000000       32832.0625     -0.253394753    
   3.93283010       3.01776695       0.00000000       32832.0625     -0.253394753    
   3.93283010       3.01776695      -1.00000000       32832.0625     -0.253394753    
   3.93283010       3.01776695      -10.0000000       1208.52563      0.564410269    
   3.93283010       3.01776695      -9.00000000       1208.52563      0.564410269    
   4.33012676       2.50000000      -9.00000000       1208.52563      0.564410269    
   4.33012676       2.50000000      -10.0000000       1208.52563      0.564410269    
   3.93283010       3.01776695      -9.00000000       2067.80859      0.657817960    
   3.93283010       3.01776695      -8.00000000       2067.80859      0.657817960    
   4.33012676       2.50000000      -8.00000000       2067.80859      0.657817960    
   4.33012676       2.50000000      -9.00000000       2067.80859      0.657817960    
   3.93283010       3.01776695      -8.00000000       2449.83032      -1.55839315E-02
   3.93283010       3.01776695      -7.00000000       2449.83032      -1.55839315E-02
   4.33012676       2.50000000      -7.00000000       2449.83032      -1.55839315E-02
   4.33012676       2.50000000      -8.00000000       2449.83032      -1.55839315E-02
   3.93283010       3.01776695      -7.00000000       4072.18726     -0.481608748    
   3.93283010       3.01776695      -6.00000000       4072.18726     -0.481608748    
   4.33012676       2.50000000      -6.00000000       4072.18726     -0.481608748    
   4.33012676       2.50000000      -7.00000000       4072.18726     -0.481608748    
   3.93283010       3.01776695      -6.00000000       6517.27344     -0.621831715    
   3.93283010       3.01776695      -5.00000000       6517.27344     -0.621831715    
   4.33012676       2.50000000      -5.00000000       6517.27344     -0.621831715    
   4.33012676       2.50000000      -6.00000000       6517.27344     -0.621831715    
   3.93283010       3.01776695      -5.00000000       9478.92383     -0.615438104    
   3.93283010       3.01776695      -4.00000000       9478.92383     -0.615438104    
   4.33012676       2.50000000      -4.00000000       9478.92383     -0.615438104    
   4.33012676       2.50000000      -5.00000000       9478.92383     -0.615438104    
   3.93283010       3.01776695      -4.00000000       13138.8809     -0.537521124    
   3.93283010       3.01776695      -3.00000000       13138.8809     -0.537521124    
   4.33012676       2.50000000      -3.00000000       13138.8809     -0.537521124    
   4.33012676       2.50000000      -4.00000000       13138.8809     -0.537521124    
   3.93283010       3.01776695      -3.00000000       18095.5820     -0.427603692    
   3.93283010       3.01776695      -2.00000000       18095.5820     -0.427603692    
   4.33012676       2.50000000      -2.00000000       18095.5820     -0.427603692    
   4.33012676       2.50000000      -3.00000000       18095.5820     -0.427603692    
   3.93283010       3.01776695      -2.00000000       25291.1406     -0.319976777    
   3.93283010       3.01776695      -1.00000000       25291.1406     -0.319976777    
   4.33012676       2.50000000      -1.00000000       25291.1406     -0.319976777    
   4.33012676       2.50000000      -2.00000000       25291.1406     -0.319976777    
   3.93283010       3.01776695      -1.00000000       36077.1406     -0.246098489    
   3.93283010       3.01776695       0.00000000       36077.1406     -0.246098489    
   4.33012676       2.50000000       0.00000000       36077.1406     -0.246098489    
   4.33012676       2.50000000      -1.00000000       36077.1406     -0.246098489    
   2.50000000       4.33012676      -10.0000000       846.663818      0.625736713    
   2.50000000       4.33012676      -9.00000000       846.663818      0.625736713    
   3.01776695       3.93283010      -9.00000000       846.663818      0.625736713    
   3.01776695       3.93283010      -10.0000000       846.663818      0.625736713    
   2.50000000       4.33012676      -9.00000000       1411.73157      0.677017629    
   2.50000000       4.33012676      -8.00000000       1411.73157      0.677017629    
   3.01776695       3.93283010      -8.00000000       1411.73157      0.677017629    
   3.01776695       3.93283010      -9.00000000       1411.73157      0.677017629    
   2.50000000       4.33012676      -8.00000000       1647.50854      -1.62566490E-02
   2.50000000       4.33012676      -7.00000000       1647.50854      -1.62566490E-02
   3.01776695       3.93283010      -7.00000000       1647.50854      -1.62566490E-02
   3.01776695       3.93283010      -8.00000000       1647.50854      -1.62566490E-02
   2.50000000       4.33012676      -7.00000000       2755.71191     -0.493383855    
   2.50000000       4.33012676      -6.00000000       2755.71191     -0.493383855    
   3.01776695       3.93283010      -6.00000000       2755.71191     -0.493383855    
   3.01776695       3.93283010      -7.00000000       2755.71191     -0.493383855    
   2.50000000       4.33012676      -6.00000000       4425.58691     -0.635164022    
   2.50000000       4.33012676      -5.00000000       4425.58691     -0.635164022    
   3.01776695       3.93283010      -5.00000000       4425.58691     -0.635164022    
   3.01776695       3.93283010      -6.00000000       4425.58691     -0.635164022    
   2.50000000       4.33012676      -5.00000000       6437.90332     -0.629199445    
   2.50000000       4.33012676      -4.00000000       6437.90332     -0.629199445    
   3.01776695       3.93283010      -4.00000000       6437.90332     -0.629199445    
   3.01776695       3.93283010      -5.00000000       6437.90332     -0.629199445    
   2.50000000       4.33012676      -4.00000000       8911.40625     -0.551519692    
   2.50000000       4.33012676      -3.00000000       8911.40625     -0.551519692    
   3.01776695       3.93283010      -3.00000000       8911.40625     -0.551519692    
   3.01776695       3.93283010      -4.00000000       8911.40625     -0.551519692    
   2.50000000       4.33012676      -3.00000000       12246.0820     -0.441117883    
   2.50000000       4.33012676      -2.00000000       12246.0820     -0.441117883    
   3.01776695       3.93283010      -2.00000000       12246.0820     -0.441117883    
   3.01776695       3.93283010      -3.00000000       12246.0820     -0.441117883    
   2.50000000       4.33012676      -2.00000000       17078.8359     -0.332152694    
   2.50000000       4.33012676      -1.00000000       17078.8359     -0.332152694    
   3.01776695       3.93283010      -1.00000000       17078.8359     -0.332152694    
   3.01776695       3.93283010      -2.00000000       17078.8359     -0.332152694    
   2.50000000       4.33012676      -1.00000000       24323.7852     -0.256294221    
   2.50000000       4.33012676       0.00000000       24323.7852     -0.256294221    
   3.01776695       3.93283010       0.00000000       24323.7852     -0.256294221    
   3.01776695       3.93283010      -1.00000000       24323.7852     -0.256294221    
   3.01776695       3.93283010      -10.0000000       948.720398      0.550254285    
   3.01776695       3.93283010      -9.00000000       948.720398      0.550254285    
   3.53553391       3.53553391      -9.00000000       948.720398      0.550254285    
   3.53553391       3.53553391      -10.0000000       948.720398      0.550254285    
   3.01776695       3.93283010      -9.00000000       1632.04968      0.653518975    
   3.01776695       3.93283010      -8.00000000       1632.04968      0.653518975    
   3.53553391       3.53553391      -8.00000000       1632.04968      0.653518975    
   3.53553391       3.53553391      -9.00000000       1632.04968      0.653518975    
   3.01776695       3.93283010      -8.00000000       1939.94568      -1.54368579E-02
   3.01776695       3.93283010      -7.00000000       1939.94568      -1.54368579E-02
   3.53553391       3.53553391      -7.00000000       1939.94568      -1.54368579E-02
   3.53553391       3.53553391      -8.00000000       1939.94568      -1.54368579E-02
   3.01776695       3.93283010      -7.00000000       3220.25952     -0.479000539    
   3.01776695       3.93283010      -6.00000000       3220.25952     -0.479000539    
   3.53553391       3.53553391      -6.00000000       3220.25952     -0.479000539    
   3.53553391       3.53553391      -7.00000000       3220.25952     -0.479000539    
   3.01776695       3.93283010      -6.00000000       5149.90186     -0.618866444    
   3.01776695       3.93283010      -5.00000000       5149.90186     -0.618866444    
   3.53553391       3.53553391      -5.00000000       5149.90186     -0.618866444    
   3.53553391       3.53553391      -6.00000000       5149.90186     -0.618866444    
   3.01776695       3.93283010      -5.00000000       7489.88037     -0.612377048    
   3.01776695       3.93283010      -4.00000000       7489.88037     -0.612377048    
   3.53553391       3.53553391      -4.00000000       7489.88037     -0.612377048    
   3.53553391       3.53553391      -5.00000000       7489.88037     -0.612377048    
   3.01776695       3.93283010      -4.00000000       10385.0215     -0.534412324    
   3.01776695       3.93283010      -3.00000000       10385.0215     -0.534412324    
   3.53553391       3.53553391      -3.00000000       10385.0215     -0.534412324    
   3.53553391       3.53553391      -4.00000000       10385.0215     -0.534412324    
   3.01776695       3.93283010      -3.00000000       14309.8174     -0.424609721    
   3.01776695       3.93283010      -2.00000000       14309.8174     -0.424609721    
   3.53553391       3.53553391      -2.00000000       14309.8174     -0.424609721    
   3.53553391       3.53553391      -3.00000000       14309.8174     -0.424609721    
   3.01776695       3.93283010      -2.00000000       20009.4434     -0.317287177    
   3.01776695       3.93283010      -1.00000000       20009.4434     -0.317287177    
   3.53553391       3.53553391      -1.00000000       20009.4434     -0.317287177    
   3.53553391       3.53553391      -2.00000000       20009.4434     -0.317287177    
   3.01776695       3.93283010      -1.00000000       28552.7910     -0.243850231    
   3.01776695       3.93283010       0.00000000       28552.7910     -0.243850231    
   3.53553391       3.53553391       0.00000000       28552.7910     -0.243850231    
   3.53553391       3.53553391      -1.00000000       28552.7910     -0.243850231    
   1.29409504       4.82962894      -10.0000000       505.976379      0.663632989    
   1.29409504       4.82962894      -9.00000000       505.976379      0.663632989    
   1.89704800       4.57987785      -9.00000000       505.976379      0.663632989    
   1.89704800       4.57987785      -10.0000000       505.976379      0.663632989    
   1.29409504       4.82962894      -9.00000000       828.600708      0.689415514    
   1.29409504       4.82962894      -8.00000000       828.600708      0.689415514    
   1.89704800       4.57987785      -8.00000000       828.600708      0.689415514    
   1.89704800       4.57987785      -9.00000000       828.600708      0.689415514    
   1.29409504       4.82962894      -8.00000000       957.309082      -1.67039186E-02
   1.29409504       4.82962894      -7.00000000       957.309082      -1.67039186E-02
   1.89704800       4.57987785      -7.00000000       957.309082      -1.67039186E-02
   1.89704800       4.57987785      -8.00000000       957.309082      -1.67039186E-02
   1.29409504       4.82962894      -7.00000000       1607.97607     -0.501102149    
   1.29409504       4.82962894      -6.00000000       1607.97607     -0.501102149    
   1.89704800       4.57987785      -6.00000000       1607.97607     -0.501102149    
   1.89704800       4.57987785      -7.00000000       1607.97607     -0.501102149    
   1.29409504       4.82962894      -6.00000000       2588.24048     -0.643851519    
   1.29409504       4.82962894      -5.00000000       2588.24048     -0.643851519    
   1.89704800       4.57987785      -5.00000000       2588.24048     -0.643851519    
   1.89704800       4.57987785      -6.00000000       2588.24048     -0.643851519    
   1.29409504       4.82962894      -5.00000000       3765.59302     -0.638164401    
   1.29409504       4.82962894      -4.00000000       3765.59302     -0.638164401    
   1.89704800       4.57987785      -4.00000000       3765.59302     -0.638164401    
   1.89704800       4.57987785      -5.00000000       3765.59302     -0.638164401    
   1.29409504       4.82962894      -4.00000000       5207.71191     -0.560659468    
   1.29409504       4.82962894      -3.00000000       5207.71191     -0.560659468    
   1.89704800       4.57987785      -3.00000000       5207.71191     -0.560659468    