 VARIABLES="X" "Y" "Z" "abs(p) (Pa)" "angle(p) (rad)"
ZONE N=   1080,E =     600, F=FEPOINT, ET=QUADRILATERAL
   4.82962894       1.29409504      -10.0000000       759.313843      -2.96773076    
   4.82962894       1.29409504      -9.00000000       759.313843      -2.96773076    
   4.91481400      0.647047520      -9.00000000       759.313843      -2.96773076    
   4.91481400      0.647047520      -10.0000000       759.313843      -2.96773076    
   4.82962894       1.29409504      -9.00000000       1061.28894      -2.95734262    
   4.82962894       1.29409504      -8.00000000       1061.28894      -2.95734262    
   4.91481400      0.647047520      -8.00000000       1061.28894      -2.95734262    
   4.91481400      0.647047520      -9.00000000       1061.28894      -2.95734262    
   4.82962894       1.29409504      -8.00000000       1379.82031       3.04565525    
   4.82962894       1.29409504      -7.00000000       1379.82031       3.04565525    
   4.91481400      0.647047520      -7.00000000       1379.82031       3.04565525    
   4.91481400      0.647047520      -8.00000000       1379.82031       3.04565525    
   4.82962894       1.29409504      -7.00000000       1879.01721       2.80924749    
   4.82962894       1.29409504      -6.00000000       1879.01721       2.80924749    
   4.91481400      0.647047520      -6.00000000       1879.01721       2.80924749    
   4.91481400      0.647047520      -7.00000000       1879.01721       2.80924749    
   4.82962894       1.29409504      -6.00000000       2565.75391       2.66468883    
   4.82962894       1.29409504      -5.00000000       2565.75391       2.66468883    
   4.91481400      0.647047520      -5.00000000       2565.75391       2.66468883    
   4.91481400      0.647047520      -6.00000000       2565.75391       2.66468883    
   4.82962894       1.29409504      -5.00000000       3419.18628       2.59038138    
   4.82962894       1.29409504      -4.00000000       3419.18628       2.59038138    
   4.91481400      0.647047520      -4.00000000       3419.18628       2.59038138    
   4.91481400      0.647047520      -5.00000000       3419.18628       2.59038138    
   4.82962894       1.29409504      -4.00000000       4442.16699       2.56041861    
   4.82962894       1.29409504      -3.00000000       4442.16699       2.56041861    
   4.91481400      0.647047520      -3.00000000       4442.16699       2.56041861    
   4.91481400      0.647047520      -4.00000000       4442.16699       2.56041861    
   4.82962894       1.29409504      -3.00000000       5669.35645       2.55640864    
   4.82962894       1.29409504      -2.00000000       5669.35645       2.55640864    
   4.91481400      0.647047520      -2.00000000       5669.35645       2.55640864    
   4.91481400      0.647047520      -3.00000000       5669.35645       2.55640864    
   4.82962894       1.29409504      -2.00000000       7164.71777       2.56595802    
   4.82962894       1.29409504      -1.00000000       7164.71777       2.56595802    
   4.91481400      0.647047520      -1.00000000       7164.71777       2.56595802    
   4.91481400      0.647047520      -2.00000000       7164.71777       2.56595802    
   4.82962894       1.29409504      -1.00000000       9030.91504       2.57843232    
   4.82962894       1.29409504       0.00000000       9030.91504       2.57843232    
   4.91481400      0.647047520       0.00000000       9030.91504       2.57843232    
   4.91481400      0.647047520      -1.00000000       9030.91504       2.57843232    
   4.91481400      0.647047520      -10.0000000       283.269989      -2.77611685    
   4.91481400      0.647047520      -9.00000000       283.269989      -2.77611685    
   5.00000000       0.00000000      -9.00000000       283.269989      -2.77611685    
   5.00000000       0.00000000      -10.0000000       283.269989      -2.77611685    
   4.91481400      0.647047520      -9.00000000       383.795868      -2.87911820    
   4.91481400      0.647047520      -8.00000000       383.795868      -2.87911820    
   5.00000000       0.00000000      -8.00000000       383.795868      -2.87911820    
   5.00000000       0.00000000      -9.00000000       383.795868      -2.87911820    
   4.91481400      0.647047520      -8.00000000       490.454071       3.04328132    
   4.91481400      0.647047520      -7.00000000       490.454071       3.04328132    
   5.00000000       0.00000000      -7.00000000       490.454071       3.04328132    
   5.00000000       0.00000000      -8.00000000       490.454071       3.04328132    
   4.91481400      0.647047520      -7.00000000       679.334412       2.76328826    
   4.91481400      0.647047520      -6.00000000       679.334412       2.76328826    
   5.00000000       0.00000000      -6.00000000       679.334412       2.76328826    
   5.00000000       0.00000000      -7.00000000       679.334412       2.76328826    
   4.91481400      0.647047520      -6.00000000       943.702881       2.60320401    
   4.91481400      0.647047520      -5.00000000       943.702881       2.60320401    
   5.00000000       0.00000000      -5.00000000       943.702881       2.60320401    
   5.00000000       0.00000000      -6.00000000       943.702881       2.60320401    
   4.91481400      0.647047520      -5.00000000       1269.07910       2.52495360    
   4.91481400      0.647047520      -4.00000000       1269.07910       2.52495360    
   5.00000000       0.00000000      -4.00000000       1269.07910       2.52495360    
   5.00000000       0.00000000      -5.00000000       1269.07910       2.52495360    
   4.91481400      0.647047520      -4.00000000       1654.20227       2.49456978    
   4.91481400      0.647047520      -3.00000000       1654.20227       2.49456978    
   5.00000000       0.00000000      -3.00000000       1654.20227       2.49456978    
   5.00000000       0.00000000      -4.00000000       1654.20227       2.49456978    
   4.91481400      0.647047520      -3.00000000       2109.55518       2.49205375    
   4.91481400      0.647047520      -2.00000000       2109.55518       2.49205375    
   5.00000000       0.00000000      -2.00000000       2109.55518       2.49205375    
   5.00000000       0.00000000      -3.00000000       2109.55518       2.49205375    
   4.91481400      0.647047520      -2.00000000       2658.30005       2.50423312    
   4.91481400      0.647047520      -1.00000000       2658.30005       2.50423312    
   5.00000000       0.00000000      -1.00000000       2658.30005       2.50423312    
   5.00000000       0.00000000      -2.00000000       2658.30005       2.50423312    
   4.91481400      0.647047520      -1.00000000       3334.99512       2.52084756    
   4.91481400      0.647047520       0.00000000       3334.99512       2.52084756    
   5.00000000       0.00000000       0.00000000       3334.99512       2.52084756    
   5.00000000       0.00000000      -1.00000000       3334.99512       2.52084756    
   4.33012676       2.50000000      -10.0000000       1745.80396      -2.93682384    
   4.33012676       2.50000000      -9.00000000       1745.80396      -2.93682384    
   4.57987785       1.89704800      -9.00000000       1745.80396      -2.93682384    
   4.57987785       1.89704800      -10.0000000       1745.80396      -2.93682384    
   4.33012676       2.50000000      -9.00000000       2433.06226      -2.94501352    
   4.33012676       2.50000000      -8.00000000       2433.06226      -2.94501352    
   4.57987785       1.89704800      -8.00000000       2433.06226      -2.94501352    
   4.57987785       1.89704800      -9.00000000       2433.06226      -2.94501352    
   4.33012676       2.50000000      -8.00000000       3156.05981       3.04528403    
   4.33012676       2.50000000      -7.00000000       3156.05981       3.04528403    
   4.57987785       1.89704800      -7.00000000       3156.05981       3.04528403    
   4.57987785       1.89704800      -8.00000000       3156.05981       3.04528403    
   4.33012676       2.50000000      -7.00000000       4308.71240       2.80200362    
   4.33012676       2.50000000      -6.00000000       4308.71240       2.80200362    
   4.57987785       1.89704800      -6.00000000       4308.71240       2.80200362    
   4.57987785       1.89704800      -7.00000000       4308.71240       2.80200362    
   4.33012676       2.50000000      -6.00000000       5898.85840       2.65485883    
   4.33012676       2.50000000      -5.00000000       5898.85840       2.65485883    
   4.57987785       1.89704800      -5.00000000       5898.85840       2.65485883    
   4.57987785       1.89704800      -6.00000000       5898.85840       2.65485883    
   4.33012676       2.50000000      -5.00000000       7872.15430       2.57984209    
   4.33012676       2.50000000      -4.00000000       7872.15430       2.57984209    
   4.57987785       1.89704800      -4.00000000       7872.15430       2.57984209    
   4.57987785       1.89704800      -5.00000000       7872.15430       2.57984209    
   4.33012676       2.50000000      -4.00000000       10232.8125       2.54978156    
   4.33012676       2.50000000      -3.00000000       10232.8125       2.54978156    
   4.57987785       1.89704800      -3.00000000       10232.8125       2.54978156    
   4.57987785       1.89704800      -4.00000000       10232.8125       2.54978156    
   4.33012676       2.50000000      -3.00000000       13058.2598       2.54601860    
   4.33012676       2.50000000      -2.00000000       13058.2598       2.54601860    
   4.57987785       1.89704800      -2.00000000       13058.2598       2.54601860    
   4.57987785       1.89704800      -3.00000000       13058.2598       2.54601860    
   4.33012676       2.50000000      -2.00000000       16495.2070       2.55601645    
   4.33012676       2.50000000      -1.00000000       16495.2070       2.55601645    
   4.57987785       1.89704800      -1.00000000       16495.2070       2.55601645    
   4.57987785       1.89704800      -2.00000000       16495.2070       2.55601645    
   4.33012676       2.50000000      -1.00000000       20776.7266       2.56919432    
   4.33012676       2.50000000       0.00000000       20776.7266       2.56919432    
   4.57987785       1.89704800       0.00000000       20776.7266       2.56919432    
   4.57987785       1.89704800      -1.00000000       20776.7266       2.56919432    
   4.57987785       1.89704800      -10.0000000       1300.71655      -2.88752508    
   4.57987785       1.89704800      -9.00000000       1300.71655      -2.88752508    
   4.82962894       1.29409504      -9.00000000       1300.71655      -2.88752508    
   4.82962894       1.29409504      -10.0000000       1300.71655      -2.88752508    
   4.57987785       1.89704800      -9.00000000       1801.39148      -2.92517281    
   4.57987785       1.89704800      -8.00000000       1801.39148      -2.92517281    
   4.82962894       1.29409504      -8.00000000       1801.39148      -2.92517281    
   4.82962894       1.29409504      -9.00000000       1801.39148      -2.92517281    
   4.57987785       1.89704800      -8.00000000       2327.30029       3.04468679    
   4.57987785       1.89704800      -7.00000000       2327.30029       3.04468679    
   4.82962894       1.29409504      -7.00000000       2327.30029       3.04468679    
   4.82962894       1.29409504      -8.00000000       2327.30029       3.04468679    
   4.57987785       1.89704800      -7.00000000       3190.57300       2.79034925    
   4.57987785       1.89704800      -6.00000000       3190.57300       2.79034925    
   4.82962894       1.29409504      -6.00000000       3190.57300       2.79034925    
   4.82962894       1.29409504      -7.00000000       3190.57300       2.79034925    
   4.57987785       1.89704800      -6.00000000       4386.82910       2.63915038    
   4.57987785       1.89704800      -5.00000000       4386.82910       2.63915038    
   4.82962894       1.29409504      -5.00000000       4386.82910       2.63915038    
   4.82962894       1.29409504      -6.00000000       4386.82910       2.63915038    
   4.57987785       1.89704800      -5.00000000       5867.79492       2.56306076    
   4.57987785       1.89704800      -4.00000000       5867.79492       2.56306076    
   4.82962894       1.29409504      -4.00000000       5867.79492       2.56306076    
   4.82962894       1.29409504      -5.00000000       5867.79492       2.56306076    
   4.57987785       1.89704800      -4.00000000       7633.81689       2.53286934    
   4.57987785       1.89704800      -3.00000000       7633.81689       2.53286934    
   4.82962894       1.29409504      -3.00000000       7633.81689       2.53286934    
   4.82962894       1.29409504      -4.00000000       7633.81689       2.53286934    
   4.57987785       1.89704800      -3.00000000       9739.79590       2.52949548    
   4.57987785       1.89704800      -2.00000000       9739.79590       2.52949548    
   4.82962894       1.29409504      -2.00000000       9739.79590       2.52949548    
   4.82962894       1.29409504      -3.00000000       9739.79590       2.52949548    
   4.57987785       1.89704800      -2.00000000       12294.4521       2.54018950    
   4.57987785       1.89704800      -1.00000000       12294.4521       2.54018950    
   4.82962894       1.29409504      -1.00000000       12294.4521       2.54018950    
   4.82962894       1.29409504      -2.00000000       12294.4521       2.54018950    
   4.57987785       1.89704800      -1.00000000       15467.3916       2.55445719    
   4.57987785       1.89704800       0.00000000       15467.3916       2.55445719    
   4.82962894       1.29409504       0.00000000       15467.3916       2.55445719    
   4.82962894       1.29409504      -1.00000000       15467.3916       2.55445719    
   3.53553391       3.53553391      -10.0000000       2613.78540      -2.92784500    
   3.53553391       3.53553391      -9.00000000       2613.78540      -2.92784500    
   3.93283010       3.01776695      -9.00000000       2613.78540      -2.92784500    
   3.93283010       3.01776695      -10.0000000       2613.78540      -2.92784500    
   3.53553391       3.53553391      -9.00000000       3639.12964      -2.94141769    
   3.53553391       3.53553391      -8.00000000       3639.12964      -2.94141769    
   3.93283010       3.01776695      -8.00000000       3639.12964      -2.94141769    
   3.93283010       3.01776695      -9.00000000       3639.12964      -2.94141769    
   3.53553391       3.53553391      -8.00000000       4717.21924       3.04517627    
   3.53553391       3.53553391      -7.00000000       4717.21924       3.04517627    
   3.93283010       3.01776695      -7.00000000       4717.21924       3.04517627    
   3.93283010       3.01776695      -8.00000000       4717.21924       3.04517627    
   3.53553391       3.53553391      -7.00000000       6444.83350       2.79989147    
   3.53553391       3.53553391      -6.00000000       6444.83350       2.79989147    
   3.93283010       3.01776695      -6.00000000       6444.83350       2.79989147    
   3.93283010       3.01776695      -7.00000000       6444.83350       2.79989147    
   3.53553391       3.53553391      -6.00000000       8830.12109       2.65200210    
   3.53553391       3.53553391      -5.00000000       8830.12109       2.65200210    
   3.93283010       3.01776695      -5.00000000       8830.12109       2.65200210    
   3.93283010       3.01776695      -6.00000000       8830.12109       2.65200210    
   3.53553391       3.53553391      -5.00000000       11788.9053       2.57678485    
   3.53553391       3.53553391      -4.00000000       11788.9053       2.57678485    
   3.93283010       3.01776695      -4.00000000       11788.9053       2.57678485    
   3.93283010       3.01776695      -5.00000000       11788.9053       2.57678485    
   3.53553391       3.53553391      -4.00000000       15326.4268       2.54669809    
   3.53553391       3.53553391      -3.00000000       15326.4268       2.54669809    
   3.93283010       3.01776695      -3.00000000       15326.4268       2.54669809    
   3.93283010       3.01776695      -4.00000000       15326.4268       2.54669809    
   3.53553391       3.53553391      -3.00000000       19557.6484       2.54300690    
   3.53553391       3.53553391      -2.00000000       19557.6484       2.54300690    
   3.93283010       3.01776695      -2.00000000       19557.6484       2.54300690    
   3.93283010       3.01776695      -3.00000000       19557.6484       2.54300690    
   3.53553391       3.53553391      -2.00000000       24702.0508       2.55313349    
   3.53553391       3.53553391      -1.00000000       24702.0508       2.55313349    
   3.93283010       3.01776695      -1.00000000       24702.0508       2.55313349    
   3.93283010       3.01776695      -2.00000000       24702.0508       2.55313349    
   3.53553391       3.53553391      -1.00000000       31107.1621       2.56651211    
   3.53553391       3.53553391       0.00000000       31107.1621       2.56651211    
   3.93283010       3.01776695       0.00000000       31107.1621       2.56651211    
   3.93283010       3.01776695      -1.00000000       31107.1621       2.56651211    
   3.93283010       3.01776695      -10.0000000       2231.50000      -2.90163612    
   3.93283010       3.01776695      -9.00000000       2231.50000      -2.90163612    
   4.33012676       2.50000000      -9.00000000       2231.50000      -2.90163612    
   4.33012676       2.50000000      -10.0000000       2231.50000      -2.90163612    
   3.93283010       3.01776695      -9.00000000       3096.68457      -2.93087697    
   3.93283010       3.01776695      -8.00000000       3096.68457      -2.93087697    
   4.33012676       2.50000000      -8.00000000       3096.68457      -2.93087697    
   4.33012676       2.50000000      -9.00000000       3096.68457      -2.93087697    
   3.93283010       3.01776695      -8.00000000       4005.54468       3.04485965    
   3.93283010       3.01776695      -7.00000000       4005.54468       3.04485965    
   4.33012676       2.50000000      -7.00000000       4005.54468       3.04485965    
   4.33012676       2.50000000      -8.00000000       4005.54468       3.04485965    
   3.93283010       3.01776695      -7.00000000       5484.65820       2.79369974    
   3.93283010       3.01776695      -6.00000000       5484.65820       2.79369974    
   4.33012676       2.50000000      -6.00000000       5484.65820       2.79369974    
   4.33012676       2.50000000      -7.00000000       5484.65820       2.79369974    
   3.93283010       3.01776695      -6.00000000       7531.68799       2.64365315    
   3.93283010       3.01776695      -5.00000000       7531.68799       2.64365315    
   4.33012676       2.50000000      -5.00000000       7531.68799       2.64365315    
   4.33012676       2.50000000      -6.00000000       7531.68799       2.64365315    
   3.93283010       3.01776695      -5.00000000       10067.6797       2.56786275    
   3.93283010       3.01776695      -4.00000000       10067.6797       2.56786275    
   4.33012676       2.50000000      -4.00000000       10067.6797       2.56786275    
   4.33012676       2.50000000      -5.00000000       10067.6797       2.56786275    
   3.93283010       3.01776695      -4.00000000       13094.5684       2.53770685    
   3.93283010       3.01776695      -3.00000000       13094.5684       2.53770685    
   4.33012676       2.50000000      -3.00000000       13094.5684       2.53770685    
   4.33012676       2.50000000      -4.00000000       13094.5684       2.53770685    
   3.93283010       3.01776695      -3.00000000       16707.9492       2.53422141    
   3.93283010       3.01776695      -2.00000000       16707.9492       2.53422141    
   4.33012676       2.50000000      -2.00000000       16707.9492       2.53422141    
   4.33012676       2.50000000      -3.00000000       16707.9492       2.53422141    
   3.93283010       3.01776695      -2.00000000       21094.7012       2.54471922    
   3.93283010       3.01776695      -1.00000000       21094.7012       2.54471922    
   4.33012676       2.50000000      -1.00000000       21094.7012       2.54471922    
   4.33012676       2.50000000      -2.00000000       21094.7012       2.54471922    
   3.93283010       3.01776695      -1.00000000       26547.8438       2.55867791    
   3.93283010       3.01776695       0.00000000       26547.8438       2.55867791    
   4.33012676       2.50000000       0.00000000       26547.8438       2.55867791    
   4.33012676       2.50000000      -1.00000000       26547.8438       2.55867791    
   2.50000000       4.33012676      -10.0000000       3303.75122      -2.92310524    
   2.50000000       4.33012676      -9.00000000       3303.75122      -2.92310524    
   3.01776695       3.93283010      -9.00000000       3303.75122      -2.92310524    
   3.01776695       3.93283010      -10.0000000       3303.75122      -2.92310524    
   2.50000000       4.33012676      -9.00000000       4597.22119      -2.93951464    
   2.50000000       4.33012676      -8.00000000       4597.22119      -2.93951464    
   3.01776695       3.93283010      -8.00000000       4597.22119      -2.93951464    
   3.01776695       3.93283010      -9.00000000       4597.22119      -2.93951464    
   2.50000000       4.33012676      -8.00000000       5956.90625       3.04511929    
   2.50000000       4.33012676      -7.00000000       5956.90625       3.04511929    
   3.01776695       3.93283010      -7.00000000       5956.90625       3.04511929    
   3.01776695       3.93283010      -8.00000000       5956.90625       3.04511929    
   2.50000000       4.33012676      -7.00000000       8141.77979       2.79877424    
   2.50000000       4.33012676      -6.00000000       8141.77979       2.79877424    
   3.01776695       3.93283010      -6.00000000       8141.77979       2.79877424    
   3.01776695       3.93283010      -7.00000000       8141.77979       2.79877424    
   2.50000000       4.33012676      -6.00000000       11159.6680       2.65049243    
   2.50000000       4.33012676      -5.00000000       11159.6680       2.65049243    
   3.01776695       3.93283010      -5.00000000       11159.6680       2.65049243    
   3.01776695       3.93283010      -6.00000000       11159.6680       2.65049243    
   2.50000000       4.33012676      -5.00000000       14902.3105       2.57516980    
   2.50000000       4.33012676      -4.00000000       14902.3105       2.57516980    
   3.01776695       3.93283010      -4.00000000       14902.3105       2.57516980    
   3.01776695       3.93283010      -5.00000000       14902.3105       2.57516980    
   2.50000000       4.33012676      -4.00000000       19375.6367       2.54506922    
   2.50000000       4.33012676      -3.00000000       19375.6367       2.54506922    
   3.01776695       3.93283010      -3.00000000       19375.6367       2.54506922    
   3.01776695       3.93283010      -4.00000000       19375.6367       2.54506922    
   2.50000000       4.33012676      -3.00000000       24724.3105       2.54141617    
   2.50000000       4.33012676      -2.00000000       24724.3105       2.54141617    
   3.01776695       3.93283010      -2.00000000       24724.3105       2.54141617    
   3.01776695       3.93283010      -3.00000000       24724.3105       2.54141617    
   2.50000000       4.33012676      -2.00000000       31225.5781       2.55161023    
   2.50000000       4.33012676      -1.00000000       31225.5781       2.55161023    
   3.01776695       3.93283010      -1.00000000       31225.5781       2.55161023    
   3.01776695       3.93283010      -2.00000000       31225.5781       2.55161023    
   2.50000000       4.33012676      -1.00000000       39317.7734       2.56509423    
   2.50000000       4.33012676       0.00000000       39317.7734       2.56509423    
   3.01776695       3.93283010       0.00000000       39317.7734       2.56509423    
   3.01776695       3.93283010      -1.00000000       39317.7734       2.56509423    
   3.01776695       3.93283010      -10.0000000       3010.39746      -2.90773177    
   3.01776695       3.93283010      -9.00000000       3010.39746      -2.90773177    
   3.53553391       3.53553391      -9.00000000       3010.39746      -2.90773177    
   3.53553391       3.53553391      -10.0000000       3010.39746      -2.90773177    
   3.01776695       3.93283010      -9.00000000       4180.98389      -2.93333578    
   3.01776695       3.93283010      -8.00000000       4180.98389      -2.93333578    
   3.53553391       3.53553391      -8.00000000       4180.98389      -2.93333578    
   3.53553391       3.53553391      -9.00000000       4180.98389      -2.93333578    
   3.01776695       3.93283010      -8.00000000       5410.82422       3.04493332    
   3.01776695       3.93283010      -7.00000000       5410.82422       3.04493332    
   3.53553391       3.53553391      -7.00000000       5410.82422       3.04493332    
   3.53553391       3.53553391      -8.00000000       5410.82422       3.04493332    
   3.01776695       3.93283010      -7.00000000       7405.00146       2.79514384    
   3.01776695       3.93283010      -6.00000000       7405.00146       2.79514384    
   3.53553391       3.53553391      -6.00000000       7405.00146       2.79514384    
   3.53553391       3.53553391      -7.00000000       7405.00146       2.79514384    
   3.01776695       3.93283010      -6.00000000       10163.3359       2.64559650    
   3.01776695       3.93283010      -5.00000000       10163.3359       2.64559650    
   3.53553391       3.53553391      -5.00000000       10163.3359       2.64559650    
   3.53553391       3.53553391      -6.00000000       10163.3359       2.64559650    
   3.01776695       3.93283010      -5.00000000       13581.5537       2.56993842    
   3.01776695       3.93283010      -4.00000000       13581.5537       2.56993842    
   3.53553391       3.53553391      -4.00000000       13581.5537       2.56993842    
   3.53553391       3.53553391      -5.00000000       13581.5537       2.56993842    
   3.01776695       3.93283010      -4.00000000       17663.0684       2.53979659    
   3.01776695       3.93283010      -3.00000000       17663.0684       2.53979659    
   3.53553391       3.53553391      -3.00000000       17663.0684       2.53979659    
   3.53553391       3.53553391      -4.00000000       17663.0684       2.53979659    
   3.01776695       3.93283010      -3.00000000       22537.6504       2.53626466    
   3.01776695       3.93283010      -2.00000000       22537.6504       2.53626466    
   3.53553391       3.53553391      -2.00000000       22537.6504       2.53626466    
   3.53553391       3.53553391      -3.00000000       22537.6504       2.53626466    
   3.01776695       3.93283010      -2.00000000       28457.5469       2.54667544    
   3.01776695       3.93283010      -1.00000000       28457.5469       2.54667544    
   3.53553391       3.53553391      -1.00000000       28457.5469       2.54667544    
   3.53553391       3.53553391      -2.00000000       28457.5469       2.54667544    
   3.01776695       3.93283010      -1.00000000       35819.2891       2.56050110    
   3.01776695       3.93283010       0.00000000       35819.2891       2.56050110    
   3.53553391       3.53553391       0.00000000       35819.2891       2.56050110    
   3.53553391       3.53553391      -1.00000000       35819.2891       2.56050110    
   1.29409504       4.82962894      -10.0000000       3768.62231      -2.91981411    
   1.29409504       4.82962894      -9.00000000       3768.62231      -2.91981411    
   1.89704800       4.57987785      -9.00000000       3768.62231      -2.91981411    
   1.89704800       4.57987785      -10.0000000       3768.62231      -2.91981411    
   1.29409504       4.82962894      -9.00000000       5242.03223      -2.93819404    
   1.29409504       4.82962894      -8.00000000       5242.03223      -2.93819404    
   1.89704800       4.57987785      -8.00000000       5242.03223      -2.93819404    
   1.89704800       4.57987785      -9.00000000       5242.03223      -2.93819404    
   1.29409504       4.82962894      -8.00000000       6790.64014       3.04507995    
   1.29409504       4.82962894      -7.00000000       6790.64014       3.04507995    
   1.89704800       4.57987785      -7.00000000       6790.64014       3.04507995    
   1.89704800       4.57987785      -8.00000000       6790.64014       3.04507995    
   1.29409504       4.82962894      -7.00000000       9283.86914       2.79799819    
   1.29409504       4.82962894      -6.00000000       9283.86914       2.79799819    
   1.89704800       4.57987785      -6.00000000       9283.86914       2.79799819    
   1.89704800       4.57987785      -7.00000000       9283.86914       2.79799819    
   1.29409504       4.82962894      -6.00000000       12728.7158       2.64944506    
   1.29409504       4.82962894      -5.00000000       12728.7158       2.64944506    
   1.89704800       4.57987785      -5.00000000       12728.7158       2.64944506    
   1.89704800       4.57987785      -6.00000000       12728.7158       2.64944506    
   1.29409504       4.82962894      -5.00000000       17000.1680       2.57404971    
   1.29409504       4.82962894      -4.00000000       17000.1680       2.57404971    
   1.89704800       4.57987785      -4.00000000       17000.1680       2.57404971    
   1.89704800       4.57987785      -5.00000000       17000.1680       2.57404971    
   1.29409504       4.82962894      -4.00000000       22104.4785       2.54394078    
   1.29409504       4.82962894      -3.00000000       22104.4785       2.54394078    
   1.89704800       4.57987785      -3.00000000       22104.4785       2.54394078    