 VARIABLES="X" "Y" "Z" "abs(p) (Pa)" "angle(p) (rad)"
ZONE N=   1080,E =     600, F=FEPOINT, ET=QUADRILATERAL
   4.82962894       1.29409504      -10.0000000       7.83285999       1.57079637    
   4.82962894       1.29409504      -9.00000000       7.83285999       1.57079637    
   4.91481400      0.647047520      -9.00000000       7.83285999       1.57079637    
   4.91481400      0.647047520      -10.0000000       7.83285999       1.57079637    
   4.82962894       1.29409504      -9.00000000       8.01035118       1.57079637    
   4.82962894       1.29409504      -8.00000000       8.01035118       1.57079637    
   4.91481400      0.647047520      -8.00000000       8.01035118       1.57079637    
   4.91481400      0.647047520      -9.00000000       8.01035118       1.57079637    
   4.82962894       1.29409504      -8.00000000       8.01136398       1.57079637    
   4.82962894       1.29409504      -7.00000000       8.01136398       1.57079637    
   4.91481400      0.647047520      -7.00000000       8.01136398       1.57079637    
   4.91481400      0.647047520      -8.00000000       8.01136398       1.57079637    
   4.82962894       1.29409504      -7.00000000       8.01269150       1.57079637    
   4.82962894       1.29409504      -6.00000000       8.01269150       1.57079637    
   4.91481400      0.647047520      -6.00000000       8.01269150       1.57079637    
   4.91481400      0.647047520      -7.00000000       8.01269150       1.57079637    
   4.82962894       1.29409504      -6.00000000       8.00968361       1.57079637    
   4.82962894       1.29409504      -5.00000000       8.00968361       1.57079637    
   4.91481400      0.647047520      -5.00000000       8.00968361       1.57079637    
   4.91481400      0.647047520      -6.00000000       8.00968361       1.57079637    
   4.82962894       1.29409504      -5.00000000       8.00981903       1.57079637    
   4.82962894       1.29409504      -4.00000000       8.00981903       1.57079637    
   4.91481400      0.647047520      -4.00000000       8.00981903       1.57079637    
   4.91481400      0.647047520      -5.00000000       8.00981903       1.57079637    
   4.82962894       1.29409504      -4.00000000       8.01621342       1.57079637    
   4.82962894       1.29409504      -3.00000000       8.01621342       1.57079637    
   4.91481400      0.647047520      -3.00000000       8.01621342       1.57079637    
   4.91481400      0.647047520      -4.00000000       8.01621342       1.57079637    
   4.82962894       1.29409504      -3.00000000       8.01397991       1.57079637    
   4.82962894       1.29409504      -2.00000000       8.01397991       1.57079637    
   4.91481400      0.647047520      -2.00000000       8.01397991       1.57079637    
   4.91481400      0.647047520      -3.00000000       8.01397991       1.57079637    
   4.82962894       1.29409504      -2.00000000       8.01554585       1.57079637    
   4.82962894       1.29409504      -1.00000000       8.01554585       1.57079637    
   4.91481400      0.647047520      -1.00000000       8.01554585       1.57079637    
   4.91481400      0.647047520      -2.00000000       8.01554585       1.57079637    
   4.82962894       1.29409504      -1.00000000       7.97176075       1.57079637    
   4.82962894       1.29409504       0.00000000       7.97176075       1.57079637    
   4.91481400      0.647047520       0.00000000       7.97176075       1.57079637    
   4.91481400      0.647047520      -1.00000000       7.97176075       1.57079637    
   4.91481400      0.647047520      -10.0000000       7.83298016      -1.57079625    
   4.91481400      0.647047520      -9.00000000       7.83298016      -1.57079625    
   5.00000000       0.00000000      -9.00000000       7.83298016      -1.57079625    
   5.00000000       0.00000000      -10.0000000       7.83298016      -1.57079625    
   4.91481400      0.647047520      -9.00000000       8.01051426      -1.57079625    
   4.91481400      0.647047520      -8.00000000       8.01051426      -1.57079625    
   5.00000000       0.00000000      -8.00000000       8.01051426      -1.57079625    
   5.00000000       0.00000000      -9.00000000       8.01051426      -1.57079625    
   4.91481400      0.647047520      -8.00000000       8.01151562      -1.57079637    
   4.91481400      0.647047520      -7.00000000       8.01151562      -1.57079637    
   5.00000000       0.00000000      -7.00000000       8.01151562      -1.57079637    
   5.00000000       0.00000000      -8.00000000       8.01151562      -1.57079637    
   4.91481400      0.647047520      -7.00000000       8.01286125      -1.57079637    
   4.91481400      0.647047520      -6.00000000       8.01286125      -1.57079637    
   5.00000000       0.00000000      -6.00000000       8.01286125      -1.57079637    
   5.00000000       0.00000000      -7.00000000       8.01286125      -1.57079637    
   4.91481400      0.647047520      -6.00000000       8.00985146      -1.57079625    
   4.91481400      0.647047520      -5.00000000       8.00985146      -1.57079625    
   5.00000000       0.00000000      -5.00000000       8.00985146      -1.57079625    
   5.00000000       0.00000000      -6.00000000       8.00985146      -1.57079625    
   4.91481400      0.647047520      -5.00000000       8.00997066      -1.57079625    
   4.91481400      0.647047520      -4.00000000       8.00997066      -1.57079625    
   5.00000000       0.00000000      -4.00000000       8.00997066      -1.57079625    
   5.00000000       0.00000000      -5.00000000       8.00997066      -1.57079625    
   4.91481400      0.647047520      -4.00000000       8.01635933      -1.57079637    
   4.91481400      0.647047520      -3.00000000       8.01635933      -1.57079637    
   5.00000000       0.00000000      -3.00000000       8.01635933      -1.57079637    
   5.00000000       0.00000000      -4.00000000       8.01635933      -1.57079637    
   4.91481400      0.647047520      -3.00000000       8.01411533      -1.57079637    
   4.91481400      0.647047520      -2.00000000       8.01411533      -1.57079637    
   5.00000000       0.00000000      -2.00000000       8.01411533      -1.57079637    
   5.00000000       0.00000000      -3.00000000       8.01411533      -1.57079637    
   4.91481400      0.647047520      -2.00000000       8.01568985      -1.57079637    
   4.91481400      0.647047520      -1.00000000       8.01568985      -1.57079637    
   5.00000000       0.00000000      -1.00000000       8.01568985      -1.57079637    
   5.00000000       0.00000000      -2.00000000       8.01568985      -1.57079637    
   4.91481400      0.647047520      -1.00000000       7.97188711      -1.57079637    
   4.91481400      0.647047520       0.00000000       7.97188711      -1.57079637    
   5.00000000       0.00000000       0.00000000       7.97188711      -1.57079637    
   5.00000000       0.00000000      -1.00000000       7.97188711      -1.57079637    
   4.33012676       2.50000000      -10.0000000       7.83293486       1.57079637    
   4.33012676       2.50000000      -9.00000000       7.83293486       1.57079637    
   4.57987785       1.89704800      -9.00000000       7.83293486       1.57079637    
   4.57987785       1.89704800      -10.0000000       7.83293486       1.57079637    
   4.33012676       2.50000000      -9.00000000       8.01044369       1.57079637    
   4.33012676       2.50000000      -8.00000000       8.01044369       1.57079637    
   4.57987785       1.89704800      -8.00000000       8.01044369       1.57079637    
   4.57987785       1.89704800      -9.00000000       8.01044369       1.57079637    
   4.33012676       2.50000000      -8.00000000       8.01146507       1.57079637    
   4.33012676       2.50000000      -7.00000000       8.01146507       1.57079637    
   4.57987785       1.89704800      -7.00000000       8.01146507       1.57079637    
   4.57987785       1.89704800      -8.00000000       8.01146507       1.57079637    
   4.33012676       2.50000000      -7.00000000       8.01278973       1.57079637    
   4.33012676       2.50000000      -6.00000000       8.01278973       1.57079637    
   4.57987785       1.89704800      -6.00000000       8.01278973       1.57079637    
   4.57987785       1.89704800      -7.00000000       8.01278973       1.57079637    
   4.33012676       2.50000000      -6.00000000       8.00979233       1.57079637    
   4.33012676       2.50000000      -5.00000000       8.00979233       1.57079637    
   4.57987785       1.89704800      -5.00000000       8.00979233       1.57079637    
   4.57987785       1.89704800      -6.00000000       8.00979233       1.57079637    
   4.33012676       2.50000000      -5.00000000       8.00991821       1.57079637    
   4.33012676       2.50000000      -4.00000000       8.00991821       1.57079637    
   4.57987785       1.89704800      -4.00000000       8.00991821       1.57079637    
   4.57987785       1.89704800      -5.00000000       8.00991821       1.57079637    
   4.33012676       2.50000000      -4.00000000       8.01629543       1.57079637    
   4.33012676       2.50000000      -3.00000000       8.01629543       1.57079637    
   4.57987785       1.89704800      -3.00000000       8.01629543       1.57079637    
   4.57987785       1.89704800      -4.00000000       8.01629543       1.57079637    
   4.33012676       2.50000000      -3.00000000       8.01409149       1.57079637    
   4.33012676       2.50000000      -2.00000000       8.01409149       1.57079637    
   4.57987785       1.89704800      -2.00000000       8.01409149       1.57079637    
   4.57987785       1.89704800      -3.00000000       8.01409149       1.57079637    
   4.33012676       2.50000000      -2.00000000       8.01566505       1.57079625    
   4.33012676       2.50000000      -1.00000000       8.01566505       1.57079625    
   4.57987785       1.89704800      -1.00000000       8.01566505       1.57079625    
   4.57987785       1.89704800      -2.00000000       8.01566505       1.57079625    
   4.33012676       2.50000000      -1.00000000       7.97188139       1.57079637    
   4.33012676       2.50000000       0.00000000       7.97188139       1.57079637    
   4.57987785       1.89704800       0.00000000       7.97188139       1.57079637    
   4.57987785       1.89704800      -1.00000000       7.97188139       1.57079637    
   4.57987785       1.89704800      -10.0000000       7.83299112      -1.57079625    
   4.57987785       1.89704800      -9.00000000       7.83299112      -1.57079625    
   4.82962894       1.29409504      -9.00000000       7.83299112      -1.57079625    
   4.82962894       1.29409504      -10.0000000       7.83299112      -1.57079625    
   4.57987785       1.89704800      -9.00000000       8.01054096      -1.57079637    
   4.57987785       1.89704800      -8.00000000       8.01054096      -1.57079637    
   4.82962894       1.29409504      -8.00000000       8.01054096      -1.57079637    
   4.82962894       1.29409504      -9.00000000       8.01054096      -1.57079637    
   4.57987785       1.89704800      -8.00000000       8.01153183      -1.57079637    
   4.57987785       1.89704800      -7.00000000       8.01153183      -1.57079637    
   4.82962894       1.29409504      -7.00000000       8.01153183      -1.57079637    
   4.82962894       1.29409504      -8.00000000       8.01153183      -1.57079637    
   4.57987785       1.89704800      -7.00000000       8.01285076      -1.57079625    
   4.57987785       1.89704800      -6.00000000       8.01285076      -1.57079625    
   4.82962894       1.29409504      -6.00000000       8.01285076      -1.57079625    
   4.82962894       1.29409504      -7.00000000       8.01285076      -1.57079625    
   4.57987785       1.89704800      -6.00000000       8.00984192      -1.57079637    
   4.57987785       1.89704800      -5.00000000       8.00984192      -1.57079637    
   4.82962894       1.29409504      -5.00000000       8.00984192      -1.57079637    
   4.82962894       1.29409504      -6.00000000       8.00984192      -1.57079637    
   4.57987785       1.89704800      -5.00000000       8.00998211      -1.57079637    
   4.57987785       1.89704800      -4.00000000       8.00998211      -1.57079637    
   4.82962894       1.29409504      -4.00000000       8.00998211      -1.57079637    
   4.82962894       1.29409504      -5.00000000       8.00998211      -1.57079637    
   4.57987785       1.89704800      -4.00000000       8.01633739      -1.57079637    
   4.57987785       1.89704800      -3.00000000       8.01633739      -1.57079637    
   4.82962894       1.29409504      -3.00000000       8.01633739      -1.57079637    
   4.82962894       1.29409504      -4.00000000       8.01633739      -1.57079637    
   4.57987785       1.89704800      -3.00000000       8.01410389      -1.57079637    
   4.57987785       1.89704800      -2.00000000       8.01410389      -1.57079637    
   4.82962894       1.29409504      -2.00000000       8.01410389      -1.57079637    
   4.82962894       1.29409504      -3.00000000       8.01410389      -1.57079637    
   4.57987785       1.89704800      -2.00000000       8.01566887      -1.57079625    
   4.57987785       1.89704800      -1.00000000       8.01566887      -1.57079625    
   4.82962894       1.29409504      -1.00000000       8.01566887      -1.57079625    
   4.82962894       1.29409504      -2.00000000       8.01566887      -1.57079625    
   4.57987785       1.89704800      -1.00000000       7.97188807      -1.57079637    
   4.57987785       1.89704800       0.00000000       7.97188807      -1.57079637    
   4.82962894       1.29409504       0.00000000       7.97188807      -1.57079637    
   4.82962894       1.29409504      -1.00000000       7.97188807      -1.57079637    
   3.53553391       3.53553391      -10.0000000       7.83296537       1.57079637    
   3.53553391       3.53553391      -9.00000000       7.83296537       1.57079637    
   3.93283010       3.01776695      -9.00000000       7.83296537       1.57079637    
   3.93283010       3.01776695      -10.0000000       7.83296537       1.57079637    
   3.53553391       3.53553391      -9.00000000       8.01046944       1.57079637    
   3.53553391       3.53553391      -8.00000000       8.01046944       1.57079637    
   3.93283010       3.01776695      -8.00000000       8.01046944       1.57079637    
   3.93283010       3.01776695      -9.00000000       8.01046944       1.57079637    
   3.53553391       3.53553391      -8.00000000       8.01150799       1.57079637    
   3.53553391       3.53553391      -7.00000000       8.01150799       1.57079637    
   3.93283010       3.01776695      -7.00000000       8.01150799       1.57079637    
   3.93283010       3.01776695      -8.00000000       8.01150799       1.57079637    
   3.53553391       3.53553391      -7.00000000       8.01283550       1.57079637    
   3.53553391       3.53553391      -6.00000000       8.01283550       1.57079637    
   3.93283010       3.01776695      -6.00000000       8.01283550       1.57079637    
   3.93283010       3.01776695      -7.00000000       8.01283550       1.57079637    
   3.53553391       3.53553391      -6.00000000       8.00982666       1.57079637    
   3.53553391       3.53553391      -5.00000000       8.00982666       1.57079637    
   3.93283010       3.01776695      -5.00000000       8.00982666       1.57079637    
   3.93283010       3.01776695      -6.00000000       8.00982666       1.57079637    
   3.53553391       3.53553391      -5.00000000       8.00995922       1.57079637    
   3.53553391       3.53553391      -4.00000000       8.00995922       1.57079637    
   3.93283010       3.01776695      -4.00000000       8.00995922       1.57079637    
   3.93283010       3.01776695      -5.00000000       8.00995922       1.57079637    
   3.53553391       3.53553391      -4.00000000       8.01631927       1.57079637    
   3.53553391       3.53553391      -3.00000000       8.01631927       1.57079637    
   3.93283010       3.01776695      -3.00000000       8.01631927       1.57079637    
   3.93283010       3.01776695      -4.00000000       8.01631927       1.57079637    
   3.53553391       3.53553391      -3.00000000       8.01412392       1.57079637    
   3.53553391       3.53553391      -2.00000000       8.01412392       1.57079637    
   3.93283010       3.01776695      -2.00000000       8.01412392       1.57079637    
   3.93283010       3.01776695      -3.00000000       8.01412392       1.57079637    
   3.53553391       3.53553391      -2.00000000       8.01569462       1.57079625    
   3.53553391       3.53553391      -1.00000000       8.01569462       1.57079625    
   3.93283010       3.01776695      -1.00000000       8.01569462       1.57079625    
   3.93283010       3.01776695      -2.00000000       8.01569462       1.57079625    
   3.53553391       3.53553391      -1.00000000       7.97190237       1.57079637    
   3.53553391       3.53553391       0.00000000       7.97190237       1.57079637    
   3.93283010       3.01776695       0.00000000       7.97190237       1.57079637    
   3.93283010       3.01776695      -1.00000000       7.97190237       1.57079637    
   3.93283010       3.01776695      -10.0000000       7.83293772      -1.57079637    
   3.93283010       3.01776695      -9.00000000       7.83293772      -1.57079637    
   4.33012676       2.50000000      -9.00000000       7.83293772      -1.57079637    
   4.33012676       2.50000000      -10.0000000       7.83293772      -1.57079637    
   3.93283010       3.01776695      -9.00000000       8.01044559      -1.57079637    
   3.93283010       3.01776695      -8.00000000       8.01044559      -1.57079637    
   4.33012676       2.50000000      -8.00000000       8.01044559      -1.57079637    
   4.33012676       2.50000000      -9.00000000       8.01044559      -1.57079637    
   3.93283010       3.01776695      -8.00000000       8.01144123      -1.57079637    
   3.93283010       3.01776695      -7.00000000       8.01144123      -1.57079637    
   4.33012676       2.50000000      -7.00000000       8.01144123      -1.57079637    
   4.33012676       2.50000000      -8.00000000       8.01144123      -1.57079637    
   3.93283010       3.01776695      -7.00000000       8.01276875      -1.57079637    
   3.93283010       3.01776695      -6.00000000       8.01276875      -1.57079637    
   4.33012676       2.50000000      -6.00000000       8.01276875      -1.57079637    
   4.33012676       2.50000000      -7.00000000       8.01276875      -1.57079637    
   3.93283010       3.01776695      -6.00000000       8.00974369      -1.57079637    
   3.93283010       3.01776695      -5.00000000       8.00974369      -1.57079637    
   4.33012676       2.50000000      -5.00000000       8.00974369      -1.57079637    
   4.33012676       2.50000000      -6.00000000       8.00974369      -1.57079637    
   3.93283010       3.01776695      -5.00000000       8.00986576      -1.57079637    
   3.93283010       3.01776695      -4.00000000       8.00986576      -1.57079637    
   4.33012676       2.50000000      -4.00000000       8.00986576      -1.57079637    
   4.33012676       2.50000000      -5.00000000       8.00986576      -1.57079637    
   3.93283010       3.01776695      -4.00000000       8.01627159      -1.57079637    
   3.93283010       3.01776695      -3.00000000       8.01627159      -1.57079637    
   4.33012676       2.50000000      -3.00000000       8.01627159      -1.57079637    
   4.33012676       2.50000000      -4.00000000       8.01627159      -1.57079637    
   3.93283010       3.01776695      -3.00000000       8.01404190      -1.57079637    
   3.93283010       3.01776695      -2.00000000       8.01404190      -1.57079637    
   4.33012676       2.50000000      -2.00000000       8.01404190      -1.57079637    
   4.33012676       2.50000000      -3.00000000       8.01404190      -1.57079637    
   3.93283010       3.01776695      -2.00000000       8.01557064      -1.57079637    
   3.93283010       3.01776695      -1.00000000       8.01557064      -1.57079637    
   4.33012676       2.50000000      -1.00000000       8.01557064      -1.57079637    
   4.33012676       2.50000000      -2.00000000       8.01557064      -1.57079637    
   3.93283010       3.01776695      -1.00000000       7.97179794      -1.57079637    
   3.93283010       3.01776695       0.00000000       7.97179794      -1.57079637    
   4.33012676       2.50000000       0.00000000       7.97179794      -1.57079637    
   4.33012676       2.50000000      -1.00000000       7.97179794      -1.57079637    
   2.50000000       4.33012676      -10.0000000       7.83292580       1.57079637    
   2.50000000       4.33012676      -9.00000000       7.83292580       1.57079637    
   3.01776695       3.93283010      -9.00000000       7.83292580       1.57079637    
   3.01776695       3.93283010      -10.0000000       7.83292580       1.57079637    
   2.50000000       4.33012676      -9.00000000       8.01042652       1.57079637    
   2.50000000       4.33012676      -8.00000000       8.01042652       1.57079637    
   3.01776695       3.93283010      -8.00000000       8.01042652       1.57079637    
   3.01776695       3.93283010      -9.00000000       8.01042652       1.57079637    
   2.50000000       4.33012676      -8.00000000       8.01143551       1.57079637    
   2.50000000       4.33012676      -7.00000000       8.01143551       1.57079637    
   3.01776695       3.93283010      -7.00000000       8.01143551       1.57079637    
   3.01776695       3.93283010      -8.00000000       8.01143551       1.57079637    
   2.50000000       4.33012676      -7.00000000       8.01276398       1.57079637    
   2.50000000       4.33012676      -6.00000000       8.01276398       1.57079637    
   3.01776695       3.93283010      -6.00000000       8.01276398       1.57079637    
   3.01776695       3.93283010      -7.00000000       8.01276398       1.57079637    
   2.50000000       4.33012676      -6.00000000       8.00976562       1.57079637    
   2.50000000       4.33012676      -5.00000000       8.00976562       1.57079637    
   3.01776695       3.93283010      -5.00000000       8.00976562       1.57079637    
   3.01776695       3.93283010      -6.00000000       8.00976562       1.57079637    
   2.50000000       4.33012676      -5.00000000       8.00990295       1.57079637    
   2.50000000       4.33012676      -4.00000000       8.00990295       1.57079637    
   3.01776695       3.93283010      -4.00000000       8.00990295       1.57079637    
   3.01776695       3.93283010      -5.00000000       8.00990295       1.57079637    
   2.50000000       4.33012676      -4.00000000       8.01630306       1.57079637    
   2.50000000       4.33012676      -3.00000000       8.01630306       1.57079637    
   3.01776695       3.93283010      -3.00000000       8.01630306       1.57079637    
   3.01776695       3.93283010      -4.00000000       8.01630306       1.57079637    
   2.50000000       4.33012676      -3.00000000       8.01404762       1.57079637    
   2.50000000       4.33012676      -2.00000000       8.01404762       1.57079637    
   3.01776695       3.93283010      -2.00000000       8.01404762       1.57079637    
   3.01776695       3.93283010      -3.00000000       8.01404762       1.57079637    
   2.50000000       4.33012676      -2.00000000       8.01561642       1.57079637    
   2.50000000       4.33012676      -1.00000000       8.01561642       1.57079637    
   3.01776695       3.93283010      -1.00000000       8.01561642       1.57079637    
   3.01776695       3.93283010      -2.00000000       8.01561642       1.57079637    
   2.50000000       4.33012676      -1.00000000       7.97184706       1.57079637    
   2.50000000       4.33012676       0.00000000       7.97184706       1.57079637    
   3.01776695       3.93283010       0.00000000       7.97184706       1.57079637    
   3.01776695       3.93283010      -1.00000000       7.97184706       1.57079637    
   3.01776695       3.93283010      -10.0000000       7.83297205      -1.57079637    
   3.01776695       3.93283010      -9.00000000       7.83297205      -1.57079637    
   3.53553391       3.53553391      -9.00000000       7.83297205      -1.57079637    
   3.53553391       3.53553391      -10.0000000       7.83297205      -1.57079637    
   3.01776695       3.93283010      -9.00000000       8.01050186      -1.57079637    
   3.01776695       3.93283010      -8.00000000       8.01050186      -1.57079637    
   3.53553391       3.53553391      -8.00000000       8.01050186      -1.57079637    
   3.53553391       3.53553391      -9.00000000       8.01050186      -1.57079637    
   3.01776695       3.93283010      -8.00000000       8.01150608      -1.57079625    
   3.01776695       3.93283010      -7.00000000       8.01150608      -1.57079625    
   3.53553391       3.53553391      -7.00000000       8.01150608      -1.57079625    
   3.53553391       3.53553391      -8.00000000       8.01150608      -1.57079625    
   3.01776695       3.93283010      -7.00000000       8.01280785      -1.57079637    
   3.01776695       3.93283010      -6.00000000       8.01280785      -1.57079637    
   3.53553391       3.53553391      -6.00000000       8.01280785      -1.57079637    
   3.53553391       3.53553391      -7.00000000       8.01280785      -1.57079637    
   3.01776695       3.93283010      -6.00000000       8.00980949      -1.57079637    
   3.01776695       3.93283010      -5.00000000       8.00980949      -1.57079637    
   3.53553391       3.53553391      -5.00000000       8.00980949      -1.57079637    
   3.53553391       3.53553391      -6.00000000       8.00980949      -1.57079637    
   3.01776695       3.93283010      -5.00000000       8.00992107      -1.57079637    
   3.01776695       3.93283010      -4.00000000       8.00992107      -1.57079637    
   3.53553391       3.53553391      -4.00000000       8.00992107      -1.57079637    
   3.53553391       3.53553391      -5.00000000       8.00992107      -1.57079637    
   3.01776695       3.93283010      -4.00000000       8.01631641      -1.57079637    
   3.01776695       3.93283010      -3.00000000       8.01631641      -1.57079637    
   3.53553391       3.53553391      -3.00000000       8.01631641      -1.57079637    
   3.53553391       3.53553391      -4.00000000       8.01631641      -1.57079637    
   3.01776695       3.93283010      -3.00000000       8.01409626      -1.57079637    
   3.01776695       3.93283010      -2.00000000       8.01409626      -1.57079637    
   3.53553391       3.53553391      -2.00000000       8.01409626      -1.57079637    
   3.53553391       3.53553391      -3.00000000       8.01409626      -1.57079637    
   3.01776695       3.93283010      -2.00000000       8.01562405      -1.57079637    
   3.01776695       3.93283010      -1.00000000       8.01562405      -1.57079637    
   3.53553391       3.53553391      -1.00000000       8.01562405      -1.57079637    
   3.53553391       3.53553391      -2.00000000       8.01562405      -1.57079637    
   3.01776695       3.93283010      -1.00000000       7.97185135      -1.57079637    
   3.01776695       3.93283010       0.00000000       7.97185135      -1.57079637    
   3.53553391       3.53553391       0.00000000       7.97185135      -1.57079637    
   3.53553391       3.53553391      -1.00000000       7.97185135      -1.57079637    
   1.29409504       4.82962894      -10.0000000       7.83297634       1.57079637    
   1.29409504       4.82962894      -9.00000000       7.83297634       1.57079637    
   1.89704800       4.57987785      -9.00000000       7.83297634       1.57079637    
   1.89704800       4.57987785      -10.0000000       7.83297634       1.57079637    
   1.29409504       4.82962894      -9.00000000       8.01050568       1.57079637    
   1.29409504       4.82962894      -8.00000000       8.01050568       1.57079637    
   1.89704800       4.57987785      -8.00000000       8.01050568       1.57079637    
   1.89704800       4.57987785      -9.00000000       8.01050568       1.57079637    
   1.29409504       4.82962894      -8.00000000       8.01151657       1.57079637    
   1.29409504       4.82962894      -7.00000000       8.01151657       1.57079637    
   1.89704800       4.57987785      -7.00000000       8.01151657       1.57079637    
   1.89704800       4.57987785      -8.00000000       8.01151657       1.57079637    
   1.29409504       4.82962894      -7.00000000       8.01283360       1.57079637    
   1.29409504       4.82962894      -6.00000000       8.01283360       1.57079637    
   1.89704800       4.57987785      -6.00000000       8.01283360       1.57079637    
   1.89704800       4.57987785      -7.00000000       8.01283360       1.57079637    
   1.29409504       4.82962894      -6.00000000       8.00985432       1.57079637    
   1.29409504       4.82962894      -5.00000000       8.00985432       1.57079637    
   1.89704800       4.57987785      -5.00000000       8.00985432       1.57079637    
   1.89704800       4.57987785      -6.00000000       8.00985432       1.57079637    
   1.29409504       4.82962894      -5.00000000       8.00996017       1.57079637    
   1.29409504       4.82962894      -4.00000000       8.00996017       1.57079637    
   1.89704800       4.57987785      -4.00000000       8.00996017       1.57079637    
   1.89704800       4.57987785      -5.00000000       8.00996017       1.57079637    
   1.29409504       4.82962894      -4.00000000       8.01636696       1.57079637    
   1.29409504       4.82962894      -3.00000000       8.01636696       1.57079637    
   1.89704800       4.57987785      -3.00000000       8.01636696       1.57079637    