 VARIABLES="X" "Y" "Z" "abs(p) (Pa)" "angle(p) (rad)"
ZONE N=   1080,E =     600, F=FEPOINT, ET=QUADRILATERAL
   4.82962894       1.29409504      -10.0000000       5273.06787     -0.321588993    
   4.82962894       1.29409504      -9.00000000       5273.06787     -0.321588993    
   4.91481400      0.647047520      -9.00000000       5273.06787     -0.321588993    
   4.91481400      0.647047520      -10.0000000       5273.06787     -0.321588993    
   4.82962894       1.29409504      -9.00000000       6876.52588     -0.353130490    
   4.82962894       1.29409504      -8.00000000       6876.52588     -0.353130490    
   4.91481400      0.647047520      -8.00000000       6876.52588     -0.353130490    
   4.91481400      0.647047520      -9.00000000       6876.52588     -0.353130490    
   4.82962894       1.29409504      -8.00000000       9230.98047     -0.546188116    
   4.82962894       1.29409504      -7.00000000       9230.98047     -0.546188116    
   4.91481400      0.647047520      -7.00000000       9230.98047     -0.546188116    
   4.91481400      0.647047520      -8.00000000       9230.98047     -0.546188116    
   4.82962894       1.29409504      -7.00000000       12392.5693     -0.700415432    
   4.82962894       1.29409504      -6.00000000       12392.5693     -0.700415432    
   4.91481400      0.647047520      -6.00000000       12392.5693     -0.700415432    
   4.91481400      0.647047520      -7.00000000       12392.5693     -0.700415432    
   4.82962894       1.29409504      -6.00000000       16237.7646     -0.802529871    
   4.82962894       1.29409504      -5.00000000       16237.7646     -0.802529871    
   4.91481400      0.647047520      -5.00000000       16237.7646     -0.802529871    
   4.91481400      0.647047520      -6.00000000       16237.7646     -0.802529871    
   4.82962894       1.29409504      -5.00000000       20656.5586     -0.866680622    
   4.82962894       1.29409504      -4.00000000       20656.5586     -0.866680622    
   4.91481400      0.647047520      -4.00000000       20656.5586     -0.866680622    
   4.91481400      0.647047520      -5.00000000       20656.5586     -0.866680622    
   4.82962894       1.29409504      -4.00000000       25585.4512     -0.905099571    
   4.82962894       1.29409504      -3.00000000       25585.4512     -0.905099571    
   4.91481400      0.647047520      -3.00000000       25585.4512     -0.905099571    
   4.91481400      0.647047520      -4.00000000       25585.4512     -0.905099571    
   4.82962894       1.29409504      -3.00000000       31018.5000     -0.926289678    
   4.82962894       1.29409504      -2.00000000       31018.5000     -0.926289678    
   4.91481400      0.647047520      -2.00000000       31018.5000     -0.926289678    
   4.91481400      0.647047520      -3.00000000       31018.5000     -0.926289678    
   4.82962894       1.29409504      -2.00000000       37019.1875     -0.936144292    
   4.82962894       1.29409504      -1.00000000       37019.1875     -0.936144292    
   4.91481400      0.647047520      -1.00000000       37019.1875     -0.936144292    
   4.91481400      0.647047520      -2.00000000       37019.1875     -0.936144292    
   4.82962894       1.29409504      -1.00000000       43678.5898     -0.938435376    
   4.82962894       1.29409504       0.00000000       43678.5898     -0.938435376    
   4.91481400      0.647047520       0.00000000       43678.5898     -0.938435376    
   4.91481400      0.647047520      -1.00000000       43678.5898     -0.938435376    
   4.91481400      0.647047520      -10.0000000       5363.85010     -0.323155999    
   4.91481400      0.647047520      -9.00000000       5363.85010     -0.323155999    
   5.00000000       0.00000000      -9.00000000       5363.85010     -0.323155999    
   5.00000000       0.00000000      -10.0000000       5363.85010     -0.323155999    
   4.91481400      0.647047520      -9.00000000       6992.61035     -0.353790253    
   4.91481400      0.647047520      -8.00000000       6992.61035     -0.353790253    
   5.00000000       0.00000000      -8.00000000       6992.61035     -0.353790253    
   5.00000000       0.00000000      -9.00000000       6992.61035     -0.353790253    
   4.91481400      0.647047520      -8.00000000       9384.38965     -0.546170354    
   4.91481400      0.647047520      -7.00000000       9384.38965     -0.546170354    
   5.00000000       0.00000000      -7.00000000       9384.38965     -0.546170354    
   5.00000000       0.00000000      -8.00000000       9384.38965     -0.546170354    
   4.91481400      0.647047520      -7.00000000       12595.1807     -0.700091839    
   4.91481400      0.647047520      -6.00000000       12595.1807     -0.700091839    
   5.00000000       0.00000000      -6.00000000       12595.1807     -0.700091839    
   5.00000000       0.00000000      -7.00000000       12595.1807     -0.700091839    
   4.91481400      0.647047520      -6.00000000       16500.1660     -0.802085400    
   4.91481400      0.647047520      -5.00000000       16500.1660     -0.802085400    
   5.00000000       0.00000000      -5.00000000       16500.1660     -0.802085400    
   5.00000000       0.00000000      -6.00000000       16500.1660     -0.802085400    
   4.91481400      0.647047520      -5.00000000       20988.0098     -0.866195858    
   4.91481400      0.647047520      -4.00000000       20988.0098     -0.866195858    
   5.00000000       0.00000000      -4.00000000       20988.0098     -0.866195858    
   5.00000000       0.00000000      -5.00000000       20988.0098     -0.866195858    
   4.91481400      0.647047520      -4.00000000       25994.2832     -0.904600263    
   4.91481400      0.647047520      -3.00000000       25994.2832     -0.904600263    
   5.00000000       0.00000000      -3.00000000       25994.2832     -0.904600263    
   5.00000000       0.00000000      -4.00000000       25994.2832     -0.904600263    
   4.91481400      0.647047520      -3.00000000       31513.2012     -0.925788581    
   4.91481400      0.647047520      -2.00000000       31513.2012     -0.925788581    
   5.00000000       0.00000000      -2.00000000       31513.2012     -0.925788581    
   5.00000000       0.00000000      -3.00000000       31513.2012     -0.925788581    
   4.91481400      0.647047520      -2.00000000       37609.2617     -0.935647368    
   4.91481400      0.647047520      -1.00000000       37609.2617     -0.935647368    
   5.00000000       0.00000000      -1.00000000       37609.2617     -0.935647368    
   5.00000000       0.00000000      -2.00000000       37609.2617     -0.935647368    
   4.91481400      0.647047520      -1.00000000       44375.6211     -0.937949657    
   4.91481400      0.647047520       0.00000000       44375.6211     -0.937949657    
   5.00000000       0.00000000       0.00000000       44375.6211     -0.937949657    
   5.00000000       0.00000000      -1.00000000       44375.6211     -0.937949657    
   4.33012676       2.50000000      -10.0000000       4822.95312     -0.319848746    
   4.33012676       2.50000000      -9.00000000       4822.95312     -0.319848746    
   4.57987785       1.89704800      -9.00000000       4822.95312     -0.319848746    
   4.57987785       1.89704800      -10.0000000       4822.95312     -0.319848746    
   4.33012676       2.50000000      -9.00000000       6291.82715     -0.352396309    
   4.33012676       2.50000000      -8.00000000       6291.82715     -0.352396309    
   4.57987785       1.89704800      -8.00000000       6291.82715     -0.352396309    
   4.57987785       1.89704800      -9.00000000       6291.82715     -0.352396309    
   4.33012676       2.50000000      -8.00000000       8448.50098     -0.546207845    
   4.33012676       2.50000000      -7.00000000       8448.50098     -0.546207845    
   4.57987785       1.89704800      -7.00000000       8448.50098     -0.546207845    
   4.57987785       1.89704800      -8.00000000       8448.50098     -0.546207845    
   4.33012676       2.50000000      -7.00000000       11345.4180     -0.700775325    
   4.33012676       2.50000000      -6.00000000       11345.4180     -0.700775325    
   4.57987785       1.89704800      -6.00000000       11345.4180     -0.700775325    
   4.57987785       1.89704800      -7.00000000       11345.4180     -0.700775325    
   4.33012676       2.50000000      -6.00000000       14868.7979     -0.803022683    
   4.33012676       2.50000000      -5.00000000       14868.7979     -0.803022683    
   4.57987785       1.89704800      -5.00000000       14868.7979     -0.803022683    
   4.57987785       1.89704800      -6.00000000       14868.7979     -0.803022683    
   4.33012676       2.50000000      -5.00000000       18917.4102     -0.867219627    
   4.33012676       2.50000000      -4.00000000       18917.4102     -0.867219627    
   4.57987785       1.89704800      -4.00000000       18917.4102     -0.867219627    
   4.57987785       1.89704800      -5.00000000       18917.4102     -0.867219627    
   4.33012676       2.50000000      -4.00000000       23433.0215     -0.905653417    
   4.33012676       2.50000000      -3.00000000       23433.0215     -0.905653417    
   4.57987785       1.89704800      -3.00000000       23433.0215     -0.905653417    
   4.57987785       1.89704800      -4.00000000       23433.0215     -0.905653417    
   4.33012676       2.50000000      -3.00000000       28409.9492     -0.926845372    
   4.33012676       2.50000000      -2.00000000       28409.9492     -0.926845372    
   4.57987785       1.89704800      -2.00000000       28409.9492     -0.926845372    
   4.57987785       1.89704800      -3.00000000       28409.9492     -0.926845372    
   4.33012676       2.50000000      -2.00000000       33906.3203     -0.936695457    
   4.33012676       2.50000000      -1.00000000       33906.3203     -0.936695457    
   4.57987785       1.89704800      -1.00000000       33906.3203     -0.936695457    
   4.57987785       1.89704800      -2.00000000       33906.3203     -0.936695457    
   4.33012676       2.50000000      -1.00000000       40004.9727     -0.938974977    
   4.33012676       2.50000000       0.00000000       40004.9727     -0.938974977    
   4.57987785       1.89704800       0.00000000       40004.9727     -0.938974977    
   4.57987785       1.89704800      -1.00000000       40004.9727     -0.938974977    
   4.57987785       1.89704800      -10.0000000       5089.09766     -0.324775517    
   4.57987785       1.89704800      -9.00000000       5089.09766     -0.324775517    
   4.82962894       1.29409504      -9.00000000       5089.09766     -0.324775517    
   4.82962894       1.29409504      -10.0000000       5089.09766     -0.324775517    
   4.57987785       1.89704800      -9.00000000       6632.15625     -0.354474425    
   4.57987785       1.89704800      -8.00000000       6632.15625     -0.354474425    
   4.82962894       1.29409504      -8.00000000       6632.15625     -0.354474425    
   4.82962894       1.29409504      -9.00000000       6632.15625     -0.354474425    
   4.57987785       1.89704800      -8.00000000       8898.26465     -0.546151757    
   4.57987785       1.89704800      -7.00000000       8898.26465     -0.546151757    
   4.82962894       1.29409504      -7.00000000       8898.26465     -0.546151757    
   4.82962894       1.29409504      -8.00000000       8898.26465     -0.546151757    
   4.57987785       1.89704800      -7.00000000       11939.4639     -0.699755311    
   4.57987785       1.89704800      -6.00000000       11939.4639     -0.699755311    
   4.82962894       1.29409504      -6.00000000       11939.4639     -0.699755311    
   4.82962894       1.29409504      -7.00000000       11939.4639     -0.699755311    
   4.57987785       1.89704800      -6.00000000       15638.1152     -0.801624000    
   4.57987785       1.89704800      -5.00000000       15638.1152     -0.801624000    
   4.82962894       1.29409504      -5.00000000       15638.1152     -0.801624000    
   4.82962894       1.29409504      -6.00000000       15638.1152     -0.801624000    
   4.57987785       1.89704800      -5.00000000       19889.1738     -0.865691483    
   4.57987785       1.89704800      -4.00000000       19889.1738     -0.865691483    
   4.82962894       1.29409504      -4.00000000       19889.1738     -0.865691483    
   4.82962894       1.29409504      -5.00000000       19889.1738     -0.865691483    
   4.57987785       1.89704800      -4.00000000       24631.6582     -0.904080868    
   4.57987785       1.89704800      -3.00000000       24631.6582     -0.904080868    
   4.82962894       1.29409504      -3.00000000       24631.6582     -0.904080868    
   4.82962894       1.29409504      -4.00000000       24631.6582     -0.904080868    
   4.57987785       1.89704800      -3.00000000       29860.3535     -0.925269186    
   4.57987785       1.89704800      -2.00000000       29860.3535     -0.925269186    
   4.82962894       1.29409504      -2.00000000       29860.3535     -0.925269186    
   4.82962894       1.29409504      -3.00000000       29860.3535     -0.925269186    
   4.57987785       1.89704800      -2.00000000       35636.3438     -0.935131550    
   4.57987785       1.89704800      -1.00000000       35636.3438     -0.935131550    
   4.82962894       1.29409504      -1.00000000       35636.3438     -0.935131550    
   4.82962894       1.29409504      -2.00000000       35636.3438     -0.935131550    
   4.57987785       1.89704800      -1.00000000       42048.5508     -0.937444150    
   4.57987785       1.89704800       0.00000000       42048.5508     -0.937444150    
   4.82962894       1.29409504       0.00000000       42048.5508     -0.937444150    
   4.82962894       1.29409504      -1.00000000       42048.5508     -0.937444150    
   3.53553391       3.53553391      -10.0000000       4044.18115     -0.317578316    
   3.53553391       3.53553391      -9.00000000       4044.18115     -0.317578316    
   3.93283010       3.01776695      -9.00000000       4044.18115     -0.317578316    
   3.93283010       3.01776695      -10.0000000       4044.18115     -0.317578316    
   3.53553391       3.53553391      -9.00000000       5278.35107     -0.351440638    
   3.53553391       3.53553391      -8.00000000       5278.35107     -0.351440638    
   3.93283010       3.01776695      -8.00000000       5278.35107     -0.351440638    
   3.93283010       3.01776695      -9.00000000       5278.35107     -0.351440638    
   3.53553391       3.53553391      -8.00000000       7090.27295     -0.546233356    
   3.53553391       3.53553391      -7.00000000       7090.27295     -0.546233356    
   3.93283010       3.01776695      -7.00000000       7090.27295     -0.546233356    
   3.93283010       3.01776695      -8.00000000       7090.27295     -0.546233356    
   3.53553391       3.53553391      -7.00000000       9525.11133     -0.701242805    
   3.53553391       3.53553391      -6.00000000       9525.11133     -0.701242805    
   3.93283010       3.01776695      -6.00000000       9525.11133     -0.701242805    
   3.93283010       3.01776695      -7.00000000       9525.11133     -0.701242805    
   3.53553391       3.53553391      -6.00000000       12486.5479     -0.803664088    
   3.53553391       3.53553391      -5.00000000       12486.5479     -0.803664088    
   3.93283010       3.01776695      -5.00000000       12486.5479     -0.803664088    
   3.93283010       3.01776695      -6.00000000       12486.5479     -0.803664088    
   3.53553391       3.53553391      -5.00000000       15889.0693     -0.867918968    
   3.53553391       3.53553391      -4.00000000       15889.0693     -0.867918968    
   3.93283010       3.01776695      -4.00000000       15889.0693     -0.867918968    
   3.93283010       3.01776695      -5.00000000       15889.0693     -0.867918968    
   3.53553391       3.53553391      -4.00000000       19683.6895     -0.906374156    
   3.53553391       3.53553391      -3.00000000       19683.6895     -0.906374156    
   3.93283010       3.01776695      -3.00000000       19683.6895     -0.906374156    
   3.93283010       3.01776695      -4.00000000       19683.6895     -0.906374156    
   3.53553391       3.53553391      -3.00000000       23865.3145     -0.927567065    
   3.53553391       3.53553391      -2.00000000       23865.3145     -0.927567065    
   3.93283010       3.01776695      -2.00000000       23865.3145     -0.927567065    
   3.93283010       3.01776695      -3.00000000       23865.3145     -0.927567065    
   3.53553391       3.53553391      -2.00000000       28482.8047     -0.937411308    
   3.53553391       3.53553391      -1.00000000       28482.8047     -0.937411308    
   3.93283010       3.01776695      -1.00000000       28482.8047     -0.937411308    
   3.93283010       3.01776695      -2.00000000       28482.8047     -0.937411308    
   3.53553391       3.53553391      -1.00000000       33605.0703     -0.939676285    
   3.53553391       3.53553391       0.00000000       33605.0703     -0.939676285    
   3.93283010       3.01776695       0.00000000       33605.0703     -0.939676285    
   3.93283010       3.01776695      -1.00000000       33605.0703     -0.939676285    
   3.93283010       3.01776695      -10.0000000       4467.55518     -0.326724172    
   3.93283010       3.01776695      -9.00000000       4467.55518     -0.326724172    
   4.33012676       2.50000000      -9.00000000       4467.55518     -0.326724172    
   4.33012676       2.50000000      -10.0000000       4467.55518     -0.326724172    
   3.93283010       3.01776695      -9.00000000       5819.74121     -0.355296463    
   3.93283010       3.01776695      -8.00000000       5819.74121     -0.355296463    
   4.33012676       2.50000000      -8.00000000       5819.74121     -0.355296463    
   4.33012676       2.50000000      -9.00000000       5819.74121     -0.355296463    
   3.93283010       3.01776695      -8.00000000       7805.73389     -0.546129346    
   3.93283010       3.01776695      -7.00000000       7805.73389     -0.546129346    
   4.33012676       2.50000000      -7.00000000       7805.73389     -0.546129346    
   4.33012676       2.50000000      -8.00000000       7805.73389     -0.546129346    
   3.93283010       3.01776695      -7.00000000       10470.0869     -0.699350476    
   3.93283010       3.01776695      -6.00000000       10470.0869     -0.699350476    
   4.33012676       2.50000000      -6.00000000       10470.0869     -0.699350476    
   4.33012676       2.50000000      -7.00000000       10470.0869     -0.699350476    
   3.93283010       3.01776695      -6.00000000       13710.3457     -0.801069498    
   3.93283010       3.01776695      -5.00000000       13710.3457     -0.801069498    
   4.33012676       2.50000000      -5.00000000       13710.3457     -0.801069498    
   4.33012676       2.50000000      -6.00000000       13710.3457     -0.801069498    
   3.93283010       3.01776695      -5.00000000       17434.9199     -0.865084827    
   3.93283010       3.01776695      -4.00000000       17434.9199     -0.865084827    
   4.33012676       2.50000000      -4.00000000       17434.9199     -0.865084827    
   4.33012676       2.50000000      -5.00000000       17434.9199     -0.865084827    
   3.93283010       3.01776695      -4.00000000       21590.4258     -0.903456628    
   3.93283010       3.01776695      -3.00000000       21590.4258     -0.903456628    
   4.33012676       2.50000000      -3.00000000       21590.4258     -0.903456628    
   4.33012676       2.50000000      -4.00000000       21590.4258     -0.903456628    
   3.93283010       3.01776695      -3.00000000       26172.5820     -0.924642801    
   3.93283010       3.01776695      -2.00000000       26172.5820     -0.924642801    
   4.33012676       2.50000000      -2.00000000       26172.5820     -0.924642801    
   4.33012676       2.50000000      -3.00000000       26172.5820     -0.924642801    
   3.93283010       3.01776695      -2.00000000       31234.9062     -0.934510231    
   3.93283010       3.01776695      -1.00000000       31234.9062     -0.934510231    
   4.33012676       2.50000000      -1.00000000       31234.9062     -0.934510231    
   4.33012676       2.50000000      -2.00000000       31234.9062     -0.934510231    
   3.93283010       3.01776695      -1.00000000       36855.9336     -0.936836362    
   3.93283010       3.01776695       0.00000000       36855.9336     -0.936836362    
   4.33012676       2.50000000       0.00000000       36855.9336     -0.936836362    
   4.33012676       2.50000000      -1.00000000       36855.9336     -0.936836362    
   2.50000000       4.33012676      -10.0000000       2989.83887     -0.313915759    
   2.50000000       4.33012676      -9.00000000       2989.83887     -0.313915759    
   3.01776695       3.93283010      -9.00000000       2989.83887     -0.313915759    
   3.01776695       3.93283010      -10.0000000       2989.83887     -0.313915759    
   2.50000000       4.33012676      -9.00000000       3905.17114     -0.349900693    
   2.50000000       4.33012676      -8.00000000       3905.17114     -0.349900693    
   3.01776695       3.93283010      -8.00000000       3905.17114     -0.349900693    
   3.01776695       3.93283010      -9.00000000       3905.17114     -0.349900693    
   2.50000000       4.33012676      -8.00000000       5248.84912     -0.546275079    
   2.50000000       4.33012676      -7.00000000       5248.84912     -0.546275079    
   3.01776695       3.93283010      -7.00000000       5248.84912     -0.546275079    
   3.01776695       3.93283010      -8.00000000       5248.84912     -0.546275079    
   2.50000000       4.33012676      -7.00000000       7055.67139     -0.701995730    
   2.50000000       4.33012676      -6.00000000       7055.67139     -0.701995730    
   3.01776695       3.93283010      -6.00000000       7055.67139     -0.701995730    
   3.01776695       3.93283010      -7.00000000       7055.67139     -0.701995730    
   2.50000000       4.33012676      -6.00000000       9253.36328     -0.804694057    
   2.50000000       4.33012676      -5.00000000       9253.36328     -0.804694057    
   3.01776695       3.93283010      -5.00000000       9253.36328     -0.804694057    
   3.01776695       3.93283010      -6.00000000       9253.36328     -0.804694057    
   2.50000000       4.33012676      -5.00000000       11777.9268     -0.869043469    
   2.50000000       4.33012676      -4.00000000       11777.9268     -0.869043469    
   3.01776695       3.93283010      -4.00000000       11777.9268     -0.869043469    
   3.01776695       3.93283010      -5.00000000       11777.9268     -0.869043469    
   2.50000000       4.33012676      -4.00000000       14592.9551     -0.907530308    
   2.50000000       4.33012676      -3.00000000       14592.9551     -0.907530308    
   3.01776695       3.93283010      -3.00000000       14592.9551     -0.907530308    
   3.01776695       3.93283010      -4.00000000       14592.9551     -0.907530308    
   2.50000000       4.33012676      -3.00000000       17694.3086     -0.928725481    
   2.50000000       4.33012676      -2.00000000       17694.3086     -0.928725481    
   3.01776695       3.93283010      -2.00000000       17694.3086     -0.928725481    
   3.01776695       3.93283010      -3.00000000       17694.3086     -0.928725481    
   2.50000000       4.33012676      -2.00000000       21118.2500     -0.938561320    
   2.50000000       4.33012676      -1.00000000       21118.2500     -0.938561320    
   3.01776695       3.93283010      -1.00000000       21118.2500     -0.938561320    
   3.01776695       3.93283010      -2.00000000       21118.2500     -0.938561320    
   2.50000000       4.33012676      -1.00000000       24915.0527     -0.940802097    
   2.50000000       4.33012676       0.00000000       24915.0527     -0.940802097    
   3.01776695       3.93283010       0.00000000       24915.0527     -0.940802097    
   3.01776695       3.93283010      -1.00000000       24915.0527     -0.940802097    
   3.01776695       3.93283010      -10.0000000       3541.57202     -0.329521924    
   3.01776695       3.93283010      -9.00000000       3541.57202     -0.329521924    
   3.53553391       3.53553391      -9.00000000       3541.57202     -0.329521924    
   3.53553391       3.53553391      -10.0000000       3541.57202     -0.329521924    
   3.01776695       3.93283010      -9.00000000       4610.72021     -0.356479406    
   3.01776695       3.93283010      -8.00000000       4610.72021     -0.356479406    
   3.53553391       3.53553391      -8.00000000       4610.72021     -0.356479406    
   3.53553391       3.53553391      -9.00000000       4610.72021     -0.356479406    
   3.01776695       3.93283010      -8.00000000       6181.25781     -0.546097517    
   3.01776695       3.93283010      -7.00000000       6181.25781     -0.546097517    
   3.53553391       3.53553391      -7.00000000       6181.25781     -0.546097517    
   3.53553391       3.53553391      -8.00000000       6181.25781     -0.546097517    
   3.01776695       3.93283010      -7.00000000       8287.19238     -0.698767245    
   3.01776695       3.93283010      -6.00000000       8287.19238     -0.698767245    
   3.53553391       3.53553391      -6.00000000       8287.19238     -0.698767245    
   3.53553391       3.53553391      -7.00000000       8287.19238     -0.698767245    
   3.01776695       3.93283010      -6.00000000       10848.2490     -0.800268888    
   3.01776695       3.93283010      -5.00000000       10848.2490     -0.800268888    
   3.53553391       3.53553391      -5.00000000       10848.2490     -0.800268888    
   3.53553391       3.53553391      -6.00000000       10848.2490     -0.800268888    
   3.01776695       3.93283010      -5.00000000       13792.5215     -0.864210427    
   3.01776695       3.93283010      -4.00000000       13792.5215     -0.864210427    
   3.53553391       3.53553391      -4.00000000       13792.5215     -0.864210427    
   3.53553391       3.53553391      -5.00000000       13792.5215     -0.864210427    
   3.01776695       3.93283010      -4.00000000       17077.8535     -0.902555466    
   3.01776695       3.93283010      -3.00000000       17077.8535     -0.902555466    
   3.53553391       3.53553391      -3.00000000       17077.8535     -0.902555466    
   3.53553391       3.53553391      -4.00000000       17077.8535     -0.902555466    
   3.01776695       3.93283010      -3.00000000       20701.1797     -0.923739314    
   3.01776695       3.93283010      -2.00000000       20701.1797     -0.923739314    
   3.53553391       3.53553391      -2.00000000       20701.1797     -0.923739314    
   3.53553391       3.53553391      -3.00000000       20701.1797     -0.923739314    
   3.01776695       3.93283010      -2.00000000       24704.8516     -0.933613598    
   3.01776695       3.93283010      -1.00000000       24704.8516     -0.933613598    
   3.53553391       3.53553391      -1.00000000       24704.8516     -0.933613598    
   3.53553391       3.53553391      -2.00000000       24704.8516     -0.933613598    
   3.01776695       3.93283010      -1.00000000       29151.6816     -0.935958862    
   3.01776695       3.93283010       0.00000000       29151.6816     -0.935958862    
   3.53553391       3.53553391       0.00000000       29151.6816     -0.935958862    
   3.53553391       3.53553391      -1.00000000       29151.6816     -0.935958862    
   1.29409504       4.82962894      -10.0000000       1731.83289     -0.305367202    
   1.29409504       4.82962894      -9.00000000       1731.83289     -0.305367202    
   1.89704800       4.57987785      -9.00000000       1731.83289     -0.305367202    
   1.89704800       4.57987785      -10.0000000       1731.83289     -0.305367202    
   1.29409504       4.82962894      -9.00000000       2265.88135     -0.346314669    
   1.29409504       4.82962894      -8.00000000       2265.88135     -0.346314669    
   1.89704800       4.57987785      -8.00000000       2265.88135     -0.346314669    
   1.89704800       4.57987785      -9.00000000       2265.88135     -0.346314669    
   1.29409504       4.82962894      -8.00000000       3049.72681     -0.546371639    
   1.29409504       4.82962894      -7.00000000       3049.72681     -0.546371639    
   1.89704800       4.57987785      -7.00000000       3049.72681     -0.546371639    
   1.89704800       4.57987785      -8.00000000       3049.72681     -0.546371639    
   1.29409504       4.82962894      -7.00000000       4105.41309     -0.703742087    
   1.29409504       4.82962894      -6.00000000       4105.41309     -0.703742087    
   1.89704800       4.57987785      -6.00000000       4105.41309     -0.703742087    
   1.89704800       4.57987785      -7.00000000       4105.41309     -0.703742087    
   1.29409504       4.82962894      -6.00000000       5389.60107     -0.807080865    
   1.29409504       4.82962894      -5.00000000       5389.60107     -0.807080865    
   1.89704800       4.57987785      -5.00000000       5389.60107     -0.807080865    
   1.89704800       4.57987785      -6.00000000       5389.60107     -0.807080865    
   1.29409504       4.82962894      -5.00000000       6864.17480     -0.871645749    
   1.29409504       4.82962894      -4.00000000       6864.17480     -0.871645749    
   1.89704800       4.57987785      -4.00000000       6864.17480     -0.871645749    
   1.89704800       4.57987785      -5.00000000       6864.17480     -0.871645749    
   1.29409504       4.82962894      -4.00000000       8507.77344     -0.910206079    
   1.29409504       4.82962894      -3.00000000       8507.77344     -0.910206079    
   1.89704800       4.57987785      -3.00000000       8507.77344     -0.910206079    