 VARIABLES="X" "Y" "Z" "abs(p) (Pa)" "angle(p) (rad)"
ZONE N=   1080,E =     600, F=FEPOINT, ET=QUADRILATERAL
   4.82962894       1.29409504      -10.0000000       3864.10229      -1.17733979    
   4.82962894       1.29409504      -9.00000000       3864.10229      -1.17733979    
   4.91481400      0.647047520      -9.00000000       3864.10229      -1.17733979    
   4.91481400      0.647047520      -10.0000000       3864.10229      -1.17733979    
   4.82962894       1.29409504      -9.00000000       4792.25928      -1.19715309    
   4.82962894       1.29409504      -8.00000000       4792.25928      -1.19715309    
   4.91481400      0.647047520      -8.00000000       4792.25928      -1.19715309    
   4.91481400      0.647047520      -9.00000000       4792.25928      -1.19715309    
   4.82962894       1.29409504      -8.00000000       6716.94287      -1.27292883    
   4.82962894       1.29409504      -7.00000000       6716.94287      -1.27292883    
   4.91481400      0.647047520      -7.00000000       6716.94287      -1.27292883    
   4.91481400      0.647047520      -8.00000000       6716.94287      -1.27292883    
   4.82962894       1.29409504      -7.00000000       9110.54590      -1.32866740    
   4.82962894       1.29409504      -6.00000000       9110.54590      -1.32866740    
   4.91481400      0.647047520      -6.00000000       9110.54590      -1.32866740    
   4.91481400      0.647047520      -7.00000000       9110.54590      -1.32866740    
   4.82962894       1.29409504      -6.00000000       11780.6533      -1.36572170    
   4.82962894       1.29409504      -5.00000000       11780.6533      -1.36572170    
   4.91481400      0.647047520      -5.00000000       11780.6533      -1.36572170    
   4.91481400      0.647047520      -6.00000000       11780.6533      -1.36572170    
   4.82962894       1.29409504      -5.00000000       14610.0371      -1.39045179    
   4.82962894       1.29409504      -4.00000000       14610.0371      -1.39045179    
   4.91481400      0.647047520      -4.00000000       14610.0371      -1.39045179    
   4.91481400      0.647047520      -5.00000000       14610.0371      -1.39045179    
   4.82962894       1.29409504      -4.00000000       17509.3301      -1.40714777    
   4.82962894       1.29409504      -3.00000000       17509.3301      -1.40714777    
   4.91481400      0.647047520      -3.00000000       17509.3301      -1.40714777    
   4.91481400      0.647047520      -4.00000000       17509.3301      -1.40714777    
   4.82962894       1.29409504      -3.00000000       20398.3848      -1.41837013    
   4.82962894       1.29409504      -2.00000000       20398.3848      -1.41837013    
   4.91481400      0.647047520      -2.00000000       20398.3848      -1.41837013    
   4.91481400      0.647047520      -3.00000000       20398.3848      -1.41837013    
   4.82962894       1.29409504      -2.00000000       23196.4277      -1.42559087    
   4.82962894       1.29409504      -1.00000000       23196.4277      -1.42559087    
   4.91481400      0.647047520      -1.00000000       23196.4277      -1.42559087    
   4.91481400      0.647047520      -2.00000000       23196.4277      -1.42559087    
   4.82962894       1.29409504      -1.00000000       25754.3906      -1.42933226    
   4.82962894       1.29409504       0.00000000       25754.3906      -1.42933226    
   4.91481400      0.647047520       0.00000000       25754.3906      -1.42933226    
   4.91481400      0.647047520      -1.00000000       25754.3906      -1.42933226    
   4.91481400      0.647047520      -10.0000000       3934.22046      -1.17793918    
   4.91481400      0.647047520      -9.00000000       3934.22046      -1.17793918    
   5.00000000       0.00000000      -9.00000000       3934.22046      -1.17793918    
   5.00000000       0.00000000      -10.0000000       3934.22046      -1.17793918    
   4.91481400      0.647047520      -9.00000000       4875.16113      -1.19740784    
   4.91481400      0.647047520      -8.00000000       4875.16113      -1.19740784    
   5.00000000       0.00000000      -8.00000000       4875.16113      -1.19740784    
   5.00000000       0.00000000      -9.00000000       4875.16113      -1.19740784    
   4.91481400      0.647047520      -8.00000000       6828.53369      -1.27292335    
   4.91481400      0.647047520      -7.00000000       6828.53369      -1.27292335    
   5.00000000       0.00000000      -7.00000000       6828.53369      -1.27292335    
   5.00000000       0.00000000      -8.00000000       6828.53369      -1.27292335    
   4.91481400      0.647047520      -7.00000000       9258.47168      -1.32857156    
   4.91481400      0.647047520      -6.00000000       9258.47168      -1.32857156    
   5.00000000       0.00000000      -6.00000000       9258.47168      -1.32857156    
   5.00000000       0.00000000      -7.00000000       9258.47168      -1.32857156    
   4.91481400      0.647047520      -6.00000000       11969.4072      -1.36559725    
   4.91481400      0.647047520      -5.00000000       11969.4072      -1.36559725    
   5.00000000       0.00000000      -5.00000000       11969.4072      -1.36559725    
   5.00000000       0.00000000      -6.00000000       11969.4072      -1.36559725    
   4.91481400      0.647047520      -5.00000000       14842.2578      -1.39031994    
   4.91481400      0.647047520      -4.00000000       14842.2578      -1.39031994    
   5.00000000       0.00000000      -4.00000000       14842.2578      -1.39031994    
   5.00000000       0.00000000      -5.00000000       14842.2578      -1.39031994    
   4.91481400      0.647047520      -4.00000000       17786.1133      -1.40701437    
   4.91481400      0.647047520      -3.00000000       17786.1133      -1.40701437    
   5.00000000       0.00000000      -3.00000000       17786.1133      -1.40701437    
   5.00000000       0.00000000      -4.00000000       17786.1133      -1.40701437    
   4.91481400      0.647047520      -3.00000000       20719.5840      -1.41823661    
   4.91481400      0.647047520      -2.00000000       20719.5840      -1.41823661    
   5.00000000       0.00000000      -2.00000000       20719.5840      -1.41823661    
   5.00000000       0.00000000      -3.00000000       20719.5840      -1.41823661    
   4.91481400      0.647047520      -2.00000000       23560.5879      -1.42545712    
   4.91481400      0.647047520      -1.00000000       23560.5879      -1.42545712    
   5.00000000       0.00000000      -1.00000000       23560.5879      -1.42545712    
   5.00000000       0.00000000      -2.00000000       23560.5879      -1.42545712    
   4.91481400      0.647047520      -1.00000000       26157.8047      -1.42919624    
   4.91481400      0.647047520       0.00000000       26157.8047      -1.42919624    
   5.00000000       0.00000000       0.00000000       26157.8047      -1.42919624    
   5.00000000       0.00000000      -1.00000000       26157.8047      -1.42919624    
   4.33012676       2.50000000      -10.0000000       3530.64990      -1.17667329    
   4.33012676       2.50000000      -9.00000000       3530.64990      -1.17667329    
   4.57987785       1.89704800      -9.00000000       3530.64990      -1.17667329    
   4.57987785       1.89704800      -10.0000000       3530.64990      -1.17667329    
   4.33012676       2.50000000      -9.00000000       4382.77490      -1.19686842    
   4.33012676       2.50000000      -8.00000000       4382.77490      -1.19686842    
   4.57987785       1.89704800      -8.00000000       4382.77490      -1.19686842    
   4.57987785       1.89704800      -9.00000000       4382.77490      -1.19686842    
   4.33012676       2.50000000      -8.00000000       6147.60547      -1.27293539    
   4.33012676       2.50000000      -7.00000000       6147.60547      -1.27293539    
   4.57987785       1.89704800      -7.00000000       6147.60547      -1.27293539    
   4.57987785       1.89704800      -8.00000000       6147.60547      -1.27293539    
   4.33012676       2.50000000      -7.00000000       8341.76270      -1.32877433    
   4.33012676       2.50000000      -6.00000000       8341.76270      -1.32877433    
   4.57987785       1.89704800      -6.00000000       8341.76270      -1.32877433    
   4.57987785       1.89704800      -7.00000000       8341.76270      -1.32877433    
   4.33012676       2.50000000      -6.00000000       10789.0713      -1.36585975    
   4.33012676       2.50000000      -5.00000000       10789.0713      -1.36585975    
   4.57987785       1.89704800      -5.00000000       10789.0713      -1.36585975    
   4.57987785       1.89704800      -6.00000000       10789.0713      -1.36585975    
   4.33012676       2.50000000      -5.00000000       13382.1562      -1.39059782    
   4.33012676       2.50000000      -4.00000000       13382.1562      -1.39059782    
   4.57987785       1.89704800      -4.00000000       13382.1562      -1.39059782    
   4.57987785       1.89704800      -5.00000000       13382.1562      -1.39059782    
   4.33012676       2.50000000      -4.00000000       16039.3164      -1.40729582    
   4.33012676       2.50000000      -3.00000000       16039.3164      -1.40729582    
   4.57987785       1.89704800      -3.00000000       16039.3164      -1.40729582    
   4.57987785       1.89704800      -4.00000000       16039.3164      -1.40729582    
   4.33012676       2.50000000      -3.00000000       18687.0352      -1.41851795    
   4.33012676       2.50000000      -2.00000000       18687.0352      -1.41851795    
   4.57987785       1.89704800      -2.00000000       18687.0352      -1.41851795    
   4.57987785       1.89704800      -3.00000000       18687.0352      -1.41851795    
   4.33012676       2.50000000      -2.00000000       21251.4922      -1.42573953    
   4.33012676       2.50000000      -1.00000000       21251.4922      -1.42573953    
   4.57987785       1.89704800      -1.00000000       21251.4922      -1.42573953    
   4.57987785       1.89704800      -2.00000000       21251.4922      -1.42573953    
   4.33012676       2.50000000      -1.00000000       23595.8457      -1.42948318    
   4.33012676       2.50000000       0.00000000       23595.8457      -1.42948318    
   4.57987785       1.89704800       0.00000000       23595.8457      -1.42948318    
   4.57987785       1.89704800      -1.00000000       23595.8457      -1.42948318    
   4.57987785       1.89704800      -10.0000000       3736.22852      -1.17855787    
   4.57987785       1.89704800      -9.00000000       3736.22852      -1.17855787    
   4.82962894       1.29409504      -9.00000000       3736.22852      -1.17855787    
   4.82962894       1.29409504      -10.0000000       3736.22852      -1.17855787    
   4.57987785       1.89704800      -9.00000000       4625.82471      -1.19767320    
   4.57987785       1.89704800      -8.00000000       4625.82471      -1.19767320    
   4.82962894       1.29409504      -8.00000000       4625.82471      -1.19767320    
   4.82962894       1.29409504      -9.00000000       4625.82471      -1.19767320    
   4.57987785       1.89704800      -8.00000000       6474.77197      -1.27291703    
   4.57987785       1.89704800      -7.00000000       6474.77197      -1.27291703    
   4.82962894       1.29409504      -7.00000000       6474.77197      -1.27291703    
   4.82962894       1.29409504      -8.00000000       6474.77197      -1.27291703    
   4.57987785       1.89704800      -7.00000000       8775.44238      -1.32847190    
   4.57987785       1.89704800      -6.00000000       8775.44238      -1.32847190    
   4.82962894       1.29409504      -6.00000000       8775.44238      -1.32847190    
   4.82962894       1.29409504      -7.00000000       8775.44238      -1.32847190    
   4.57987785       1.89704800      -6.00000000       11342.4697      -1.36546826    
   4.57987785       1.89704800      -5.00000000       11342.4697      -1.36546826    
   4.82962894       1.29409504      -5.00000000       11342.4697      -1.36546826    
   4.82962894       1.29409504      -6.00000000       11342.4697      -1.36546826    
   4.57987785       1.89704800      -5.00000000       14063.0059      -1.39018309    
   4.57987785       1.89704800      -4.00000000       14063.0059      -1.39018309    
   4.82962894       1.29409504      -4.00000000       14063.0059      -1.39018309    
   4.82962894       1.29409504      -5.00000000       14063.0059      -1.39018309    
   4.57987785       1.89704800      -4.00000000       16850.7969      -1.40687537    
   4.57987785       1.89704800      -3.00000000       16850.7969      -1.40687537    
   4.82962894       1.29409504      -3.00000000       16850.7969      -1.40687537    
   4.82962894       1.29409504      -4.00000000       16850.7969      -1.40687537    
   4.57987785       1.89704800      -3.00000000       19628.8125      -1.41809785    
   4.57987785       1.89704800      -2.00000000       19628.8125      -1.41809785    
   4.82962894       1.29409504      -2.00000000       19628.8125      -1.41809785    
   4.82962894       1.29409504      -3.00000000       19628.8125      -1.41809785    
   4.57987785       1.89704800      -2.00000000       22319.1250      -1.42531812    
   4.57987785       1.89704800      -1.00000000       22319.1250      -1.42531812    
   4.82962894       1.29409504      -1.00000000       22319.1250      -1.42531812    
   4.82962894       1.29409504      -2.00000000       22319.1250      -1.42531812    
   4.57987785       1.89704800      -1.00000000       24778.6582      -1.42905486    
   4.57987785       1.89704800       0.00000000       24778.6582      -1.42905486    
   4.82962894       1.29409504       0.00000000       24778.6582      -1.42905486    
   4.82962894       1.29409504      -1.00000000       24778.6582      -1.42905486    
   3.53553391       3.53553391      -10.0000000       2956.59375      -1.17580152    
   3.53553391       3.53553391      -9.00000000       2956.59375      -1.17580152    
   3.93283010       3.01776695      -9.00000000       2956.59375      -1.17580152    
   3.93283010       3.01776695      -10.0000000       2956.59375      -1.17580152    
   3.53553391       3.53553391      -9.00000000       3674.61255      -1.19649768    
   3.53553391       3.53553391      -8.00000000       3674.61255      -1.19649768    
   3.93283010       3.01776695      -8.00000000       3674.61255      -1.19649768    
   3.93283010       3.01776695      -9.00000000       3674.61255      -1.19649768    
   3.53553391       3.53553391      -8.00000000       5159.31348      -1.27294433    
   3.53553391       3.53553391      -7.00000000       5159.31348      -1.27294433    
   3.93283010       3.01776695      -7.00000000       5159.31348      -1.27294433    
   3.93283010       3.01776695      -8.00000000       5159.31348      -1.27294433    
   3.53553391       3.53553391      -7.00000000       7004.49902      -1.32891273    
   3.53553391       3.53553391      -6.00000000       7004.49902      -1.32891273    
   3.93283010       3.01776695      -6.00000000       7004.49902      -1.32891273    
   3.93283010       3.01776695      -7.00000000       7004.49902      -1.32891273    
   3.53553391       3.53553391      -6.00000000       9062.23535      -1.36603963    
   3.53553391       3.53553391      -5.00000000       9062.23535      -1.36603963    
   3.93283010       3.01776695      -5.00000000       9062.23535      -1.36603963    
   3.93283010       3.01776695      -6.00000000       9062.23535      -1.36603963    
   3.53553391       3.53553391      -5.00000000       11242.3174      -1.39078796    
   3.53553391       3.53553391      -4.00000000       11242.3174      -1.39078796    
   3.93283010       3.01776695      -4.00000000       11242.3174      -1.39078796    
   3.93283010       3.01776695      -5.00000000       11242.3174      -1.39078796    
   3.53553391       3.53553391      -4.00000000       13476.2715      -1.40748835    
   3.53553391       3.53553391      -3.00000000       13476.2715      -1.40748835    
   3.93283010       3.01776695      -3.00000000       13476.2715      -1.40748835    
   3.93283010       3.01776695      -4.00000000       13476.2715      -1.40748835    
   3.53553391       3.53553391      -3.00000000       15702.2109      -1.41870975    
   3.53553391       3.53553391      -2.00000000       15702.2109      -1.41870975    
   3.93283010       3.01776695      -2.00000000       15702.2109      -1.41870975    
   3.93283010       3.01776695      -3.00000000       15702.2109      -1.41870975    
   3.53553391       3.53553391      -2.00000000       17858.2949      -1.42593253    
   3.53553391       3.53553391      -1.00000000       17858.2949      -1.42593253    
   3.93283010       3.01776695      -1.00000000       17858.2949      -1.42593253    
   3.93283010       3.01776695      -2.00000000       17858.2949      -1.42593253    
   3.53553391       3.53553391      -1.00000000       19829.2773      -1.42967892    
   3.53553391       3.53553391       0.00000000       19829.2773      -1.42967892    
   3.93283010       3.01776695       0.00000000       19829.2773      -1.42967892    
   3.93283010       3.01776695      -1.00000000       19829.2773      -1.42967892    
   3.93283010       3.01776695      -10.0000000       3283.62256      -1.17929971    
   3.93283010       3.01776695      -9.00000000       3283.62256      -1.17929971    
   4.33012676       2.50000000      -9.00000000       3283.62256      -1.17929971    
   4.33012676       2.50000000      -10.0000000       3283.62256      -1.17929971    
   3.93283010       3.01776695      -9.00000000       4061.24829      -1.19799078    
   3.93283010       3.01776695      -8.00000000       4061.24829      -1.19799078    
   4.33012676       2.50000000      -8.00000000       4061.24829      -1.19799078    
   4.33012676       2.50000000      -9.00000000       4061.24829      -1.19799078    
   3.93283010       3.01776695      -8.00000000       5679.76318      -1.27291059    
   3.93283010       3.01776695      -7.00000000       5679.76318      -1.27291059    
   4.33012676       2.50000000      -7.00000000       5679.76318      -1.27291059    
   4.33012676       2.50000000      -8.00000000       5679.76318      -1.27291059    
   3.93283010       3.01776695      -7.00000000       7694.37793      -1.32835293    
   3.93283010       3.01776695      -6.00000000       7694.37793      -1.32835293    
   4.33012676       2.50000000      -6.00000000       7694.37793      -1.32835293    
   4.33012676       2.50000000      -7.00000000       7694.37793      -1.32835293    
   3.93283010       3.01776695      -6.00000000       9942.55859      -1.36531234    
   3.93283010       3.01776695      -5.00000000       9942.55859      -1.36531234    
   4.33012676       2.50000000      -5.00000000       9942.55859      -1.36531234    
   4.33012676       2.50000000      -6.00000000       9942.55859      -1.36531234    
   3.93283010       3.01776695      -5.00000000       12325.3896      -1.39001811    
   3.93283010       3.01776695      -4.00000000       12325.3896      -1.39001811    
   4.33012676       2.50000000      -4.00000000       12325.3896      -1.39001811    
   4.33012676       2.50000000      -5.00000000       12325.3896      -1.39001811    
   3.93283010       3.01776695      -4.00000000       14767.1270      -1.40670860    
   3.93283010       3.01776695      -3.00000000       14767.1270      -1.40670860    
   4.33012676       2.50000000      -3.00000000       14767.1270      -1.40670860    
   4.33012676       2.50000000      -4.00000000       14767.1270      -1.40670860    
   3.93283010       3.01776695      -3.00000000       17200.3535      -1.41793096    
   3.93283010       3.01776695      -2.00000000       17200.3535      -1.41793096    
   4.33012676       2.50000000      -2.00000000       17200.3535      -1.41793096    
   4.33012676       2.50000000      -3.00000000       17200.3535      -1.41793096    
   3.93283010       3.01776695      -2.00000000       19556.6504      -1.42515039    
   3.93283010       3.01776695      -1.00000000       19556.6504      -1.42515039    
   4.33012676       2.50000000      -1.00000000       19556.6504      -1.42515039    
   4.33012676       2.50000000      -2.00000000       19556.6504      -1.42515039    
   3.93283010       3.01776695      -1.00000000       21710.8516      -1.42888439    
   3.93283010       3.01776695       0.00000000       21710.8516      -1.42888439    
   4.33012676       2.50000000       0.00000000       21710.8516      -1.42888439    
   4.33012676       2.50000000      -1.00000000       21710.8516      -1.42888439    
   2.50000000       4.33012676      -10.0000000       2181.05396      -1.17439115    
   2.50000000       4.33012676      -9.00000000       2181.05396      -1.17439115    
   3.01776695       3.93283010      -9.00000000       2181.05396      -1.17439115    
   3.01776695       3.93283010      -10.0000000       2181.05396      -1.17439115    
   2.50000000       4.33012676      -9.00000000       2716.03198      -1.19590104    
   2.50000000       4.33012676      -8.00000000       2716.03198      -1.19590104    
   3.01776695       3.93283010      -8.00000000       2716.03198      -1.19590104    
   3.01776695       3.93283010      -9.00000000       2716.03198      -1.19590104    
   2.50000000       4.33012676      -8.00000000       3819.42456      -1.27295768    
   2.50000000       4.33012676      -7.00000000       3819.42456      -1.27295768    
   3.01776695       3.93283010      -7.00000000       3819.42456      -1.27295768    
   3.01776695       3.93283010      -8.00000000       3819.42456      -1.27295768    
   2.50000000       4.33012676      -7.00000000       5189.88477      -1.32913494    
   2.50000000       4.33012676      -6.00000000       5189.88477      -1.32913494    
   3.01776695       3.93283010      -6.00000000       5189.88477      -1.32913494    
   3.01776695       3.93283010      -7.00000000       5189.88477      -1.32913494    
   2.50000000       4.33012676      -6.00000000       6717.81299      -1.36632752    
   2.50000000       4.33012676      -5.00000000       6717.81299      -1.36632752    
   3.01776695       3.93283010      -5.00000000       6717.81299      -1.36632752    
   3.01776695       3.93283010      -6.00000000       6717.81299      -1.36632752    
   2.50000000       4.33012676      -5.00000000       8336.32422      -1.39109325    
   2.50000000       4.33012676      -4.00000000       8336.32422      -1.39109325    
   3.01776695       3.93283010      -4.00000000       8336.32422      -1.39109325    
   3.01776695       3.93283010      -5.00000000       8336.32422      -1.39109325    
   2.50000000       4.33012676      -4.00000000       9994.82031      -1.40779710    
   2.50000000       4.33012676      -3.00000000       9994.82031      -1.40779710    
   3.01776695       3.93283010      -3.00000000       9994.82031      -1.40779710    
   3.01776695       3.93283010      -4.00000000       9994.82031      -1.40779710    
   2.50000000       4.33012676      -3.00000000       11647.3018      -1.41901779    
   2.50000000       4.33012676      -2.00000000       11647.3018      -1.41901779    
   3.01776695       3.93283010      -2.00000000       11647.3018      -1.41901779    
   3.01776695       3.93283010      -3.00000000       11647.3018      -1.41901779    
   2.50000000       4.33012676      -2.00000000       13248.0908      -1.42624235    
   2.50000000       4.33012676      -1.00000000       13248.0908      -1.42624235    
   3.01776695       3.93283010      -1.00000000       13248.0908      -1.42624235    
   3.01776695       3.93283010      -2.00000000       13248.0908      -1.42624235    
   2.50000000       4.33012676      -1.00000000       14711.3711      -1.42999279    
   2.50000000       4.33012676       0.00000000       14711.3711      -1.42999279    
   3.01776695       3.93283010       0.00000000       14711.3711      -1.42999279    
   3.01776695       3.93283010      -1.00000000       14711.3711      -1.42999279    
   3.01776695       3.93283010      -10.0000000       2607.24414      -1.18036282    
   3.01776695       3.93283010      -9.00000000       2607.24414      -1.18036282    
   3.53553391       3.53553391      -9.00000000       2607.24414      -1.18036282    
   3.53553391       3.53553391      -10.0000000       2607.24414      -1.18036282    
   3.01776695       3.93283010      -9.00000000       3219.90601      -1.19844627    
   3.01776695       3.93283010      -8.00000000       3219.90601      -1.19844627    
   3.53553391       3.53553391      -8.00000000       3219.90601      -1.19844627    
   3.53553391       3.53553391      -9.00000000       3219.90601      -1.19844627    
   3.01776695       3.93283010      -8.00000000       4497.69043      -1.27290022    
   3.01776695       3.93283010      -7.00000000       4497.69043      -1.27290022    
   3.53553391       3.53553391      -7.00000000       4497.69043      -1.27290022    
   3.53553391       3.53553391      -8.00000000       4497.69043      -1.27290022    
   3.01776695       3.93283010      -7.00000000       6088.95801      -1.32817912    
   3.01776695       3.93283010      -6.00000000       6088.95801      -1.32817912    
   3.53553391       3.53553391      -6.00000000       6088.95801      -1.32817912    
   3.53553391       3.53553391      -7.00000000       6088.95801      -1.32817912    
   3.01776695       3.93283010      -6.00000000       7865.07178      -1.36508799    
   3.01776695       3.93283010      -5.00000000       7865.07178      -1.36508799    
   3.53553391       3.53553391      -5.00000000       7865.07178      -1.36508799    
   3.53553391       3.53553391      -6.00000000       7865.07178      -1.36508799    
   3.01776695       3.93283010      -5.00000000       9747.81738      -1.38978028    
   3.01776695       3.93283010      -4.00000000       9747.81738      -1.38978028    
   3.53553391       3.53553391      -4.00000000       9747.81738      -1.38978028    
   3.53553391       3.53553391      -5.00000000       9747.81738      -1.38978028    
   3.01776695       3.93283010      -4.00000000       11677.0967      -1.40646744    
   3.01776695       3.93283010      -3.00000000       11677.0967      -1.40646744    
   3.53553391       3.53553391      -3.00000000       11677.0967      -1.40646744    
   3.53553391       3.53553391      -4.00000000       11677.0967      -1.40646744    
   3.01776695       3.93283010      -3.00000000       13599.7188      -1.41769004    
   3.01776695       3.93283010      -2.00000000       13599.7188      -1.41769004    
   3.53553391       3.53553391      -2.00000000       13599.7188      -1.41769004    
   3.53553391       3.53553391      -3.00000000       13599.7188      -1.41769004    
   3.01776695       3.93283010      -2.00000000       15461.4268      -1.42490828    
   3.01776695       3.93283010      -1.00000000       15461.4268      -1.42490828    
   3.53553391       3.53553391      -1.00000000       15461.4268      -1.42490828    
   3.53553391       3.53553391      -2.00000000       15461.4268      -1.42490828    
   3.01776695       3.93283010      -1.00000000       17163.4863      -1.42863870    
   3.01776695       3.93283010       0.00000000       17163.4863      -1.42863870    
   3.53553391       3.53553391       0.00000000       17163.4863      -1.42863870    
   3.53553391       3.53553391      -1.00000000       17163.4863      -1.42863870    
   1.29409504       4.82962894      -10.0000000       1256.89075      -1.17107153    
   1.29409504       4.82962894      -9.00000000       1256.89075      -1.17107153    
   1.89704800       4.57987785      -9.00000000       1256.89075      -1.17107153    
   1.89704800       4.57987785      -10.0000000       1256.89075      -1.17107153    
   1.29409504       4.82962894      -9.00000000       1572.36047      -1.19450438    
   1.29409504       4.82962894      -8.00000000       1572.36047      -1.19450438    
   1.89704800       4.57987785      -8.00000000       1572.36047      -1.19450438    
   1.89704800       4.57987785      -9.00000000       1572.36047      -1.19450438    
   1.29409504       4.82962894      -8.00000000       2219.25171      -1.27299070    
   1.29409504       4.82962894      -7.00000000       2219.25171      -1.27299070    
   1.89704800       4.57987785      -7.00000000       2219.25171      -1.27299070    
   1.89704800       4.57987785      -8.00000000       2219.25171      -1.27299070    
   1.29409504       4.82962894      -7.00000000       3021.59692      -1.32965207    
   1.29409504       4.82962894      -6.00000000       3021.59692      -1.32965207    
   1.89704800       4.57987785      -6.00000000       3021.59692      -1.32965207    
   1.89704800       4.57987785      -7.00000000       3021.59692      -1.32965207    
   1.29409504       4.82962894      -6.00000000       3915.59106      -1.36699426    
   1.29409504       4.82962894      -5.00000000       3915.59106      -1.36699426    
   1.89704800       4.57987785      -5.00000000       3915.59106      -1.36699426    
   1.89704800       4.57987785      -6.00000000       3915.59106      -1.36699426    
   1.29409504       4.82962894      -5.00000000       4862.22705      -1.39179850    
   1.29409504       4.82962894      -4.00000000       4862.22705      -1.39179850    
   1.89704800       4.57987785      -4.00000000       4862.22705      -1.39179850    
   1.89704800       4.57987785      -5.00000000       4862.22705      -1.39179850    
   1.29409504       4.82962894      -4.00000000       5832.23730      -1.40851080    
   1.29409504       4.82962894      -3.00000000       5832.23730      -1.40851080    
   1.89704800       4.57987785      -3.00000000       5832.23730      -1.40851080    