 VARIABLES="X" "Y" "Z" "abs(p) (Pa)" "angle(p) (rad)"
ZONE N=   1080,E =     600, F=FEPOINT, ET=QUADRILATERAL
   4.82962894       1.29409504      -10.0000000       19.9817486       1.57079637    
   4.82962894       1.29409504      -9.00000000       19.9817486       1.57079637    
   4.91481400      0.647047520      -9.00000000       19.9817486       1.57079637    
   4.91481400      0.647047520      -10.0000000       19.9817486       1.57079637    
   4.82962894       1.29409504      -9.00000000       20.4346008       1.57079637    
   4.82962894       1.29409504      -8.00000000       20.4346008       1.57079637    
   4.91481400      0.647047520      -8.00000000       20.4346008       1.57079637    
   4.91481400      0.647047520      -9.00000000       20.4346008       1.57079637    
   4.82962894       1.29409504      -8.00000000       20.4371014       1.57079637    
   4.82962894       1.29409504      -7.00000000       20.4371014       1.57079637    
   4.91481400      0.647047520      -7.00000000       20.4371014       1.57079637    
   4.91481400      0.647047520      -8.00000000       20.4371014       1.57079637    
   4.82962894       1.29409504      -7.00000000       20.4404125       1.57079637    
   4.82962894       1.29409504      -6.00000000       20.4404125       1.57079637    
   4.91481400      0.647047520      -6.00000000       20.4404125       1.57079637    
   4.91481400      0.647047520      -7.00000000       20.4404125       1.57079637    
   4.82962894       1.29409504      -6.00000000       20.4325981       1.57079649    
   4.82962894       1.29409504      -5.00000000       20.4325981       1.57079649    
   4.91481400      0.647047520      -5.00000000       20.4325981       1.57079649    
   4.91481400      0.647047520      -6.00000000       20.4325981       1.57079649    
   4.82962894       1.29409504      -5.00000000       20.4326897       1.57079649    
   4.82962894       1.29409504      -4.00000000       20.4326897       1.57079649    
   4.91481400      0.647047520      -4.00000000       20.4326897       1.57079649    
   4.91481400      0.647047520      -5.00000000       20.4326897       1.57079649    
   4.82962894       1.29409504      -4.00000000       20.4488144       1.57079649    
   4.82962894       1.29409504      -3.00000000       20.4488144       1.57079649    
   4.91481400      0.647047520      -3.00000000       20.4488144       1.57079649    
   4.91481400      0.647047520      -4.00000000       20.4488144       1.57079649    
   4.82962894       1.29409504      -3.00000000       20.4434643       1.57079649    
   4.82962894       1.29409504      -2.00000000       20.4434643       1.57079649    
   4.91481400      0.647047520      -2.00000000       20.4434643       1.57079649    
   4.91481400      0.647047520      -3.00000000       20.4434643       1.57079649    
   4.82962894       1.29409504      -2.00000000       20.4489021       1.57079649    
   4.82962894       1.29409504      -1.00000000       20.4489021       1.57079649    
   4.91481400      0.647047520      -1.00000000       20.4489021       1.57079649    
   4.91481400      0.647047520      -2.00000000       20.4489021       1.57079649    
   4.82962894       1.29409504      -1.00000000       20.3403835       1.57079649    
   4.82962894       1.29409504       0.00000000       20.3403835       1.57079649    
   4.91481400      0.647047520       0.00000000       20.3403835       1.57079649    
   4.91481400      0.647047520      -1.00000000       20.3403835       1.57079649    
   4.91481400      0.647047520      -10.0000000       19.9821129      -1.57079637    
   4.91481400      0.647047520      -9.00000000       19.9821129      -1.57079637    
   5.00000000       0.00000000      -9.00000000       19.9821129      -1.57079637    
   5.00000000       0.00000000      -10.0000000       19.9821129      -1.57079637    
   4.91481400      0.647047520      -9.00000000       20.4349823      -1.57079637    
   4.91481400      0.647047520      -8.00000000       20.4349823      -1.57079637    
   5.00000000       0.00000000      -8.00000000       20.4349823      -1.57079637    
   5.00000000       0.00000000      -9.00000000       20.4349823      -1.57079637    
   4.91481400      0.647047520      -8.00000000       20.4374676      -1.57079625    
   4.91481400      0.647047520      -7.00000000       20.4374676      -1.57079625    
   5.00000000       0.00000000      -7.00000000       20.4374676      -1.57079625    
   5.00000000       0.00000000      -8.00000000       20.4374676      -1.57079625    
   4.91481400      0.647047520      -7.00000000       20.4408169      -1.57079625    
   4.91481400      0.647047520      -6.00000000       20.4408169      -1.57079625    
   5.00000000       0.00000000      -6.00000000       20.4408169      -1.57079625    
   5.00000000       0.00000000      -7.00000000       20.4408169      -1.57079625    
   4.91481400      0.647047520      -6.00000000       20.4330101      -1.57079625    
   4.91481400      0.647047520      -5.00000000       20.4330101      -1.57079625    
   5.00000000       0.00000000      -5.00000000       20.4330101      -1.57079625    
   5.00000000       0.00000000      -6.00000000       20.4330101      -1.57079625    
   4.91481400      0.647047520      -5.00000000       20.4331131      -1.57079625    
   4.91481400      0.647047520      -4.00000000       20.4331131      -1.57079625    
   5.00000000       0.00000000      -4.00000000       20.4331131      -1.57079625    
   5.00000000       0.00000000      -5.00000000       20.4331131      -1.57079625    
   4.91481400      0.647047520      -4.00000000       20.4492435      -1.57079625    
   4.91481400      0.647047520      -3.00000000       20.4492435      -1.57079625    
   5.00000000       0.00000000      -3.00000000       20.4492435      -1.57079625    
   5.00000000       0.00000000      -4.00000000       20.4492435      -1.57079625    
   4.91481400      0.647047520      -3.00000000       20.4438744      -1.57079625    
   4.91481400      0.647047520      -2.00000000       20.4438744      -1.57079625    
   5.00000000       0.00000000      -2.00000000       20.4438744      -1.57079625    
   5.00000000       0.00000000      -3.00000000       20.4438744      -1.57079625    
   4.91481400      0.647047520      -2.00000000       20.4492798      -1.57079625    
   4.91481400      0.647047520      -1.00000000       20.4492798      -1.57079625    
   5.00000000       0.00000000      -1.00000000       20.4492798      -1.57079625    
   5.00000000       0.00000000      -2.00000000       20.4492798      -1.57079625    
   4.91481400      0.647047520      -1.00000000       20.3406734      -1.57079625    
   4.91481400      0.647047520       0.00000000       20.3406734      -1.57079625    
   5.00000000       0.00000000       0.00000000       20.3406734      -1.57079625    
   5.00000000       0.00000000      -1.00000000       20.3406734      -1.57079625    
   4.33012676       2.50000000      -10.0000000       19.9820080       1.57079637    
   4.33012676       2.50000000      -9.00000000       19.9820080       1.57079637    
   4.57987785       1.89704800      -9.00000000       19.9820080       1.57079637    
   4.57987785       1.89704800      -10.0000000       19.9820080       1.57079637    
   4.33012676       2.50000000      -9.00000000       20.4348049       1.57079637    
   4.33012676       2.50000000      -8.00000000       20.4348049       1.57079637    
   4.57987785       1.89704800      -8.00000000       20.4348049       1.57079637    
   4.57987785       1.89704800      -9.00000000       20.4348049       1.57079637    
   4.33012676       2.50000000      -8.00000000       20.4373150       1.57079625    
   4.33012676       2.50000000      -7.00000000       20.4373150       1.57079625    
   4.57987785       1.89704800      -7.00000000       20.4373150       1.57079625    
   4.57987785       1.89704800      -8.00000000       20.4373150       1.57079625    
   4.33012676       2.50000000      -7.00000000       20.4406548       1.57079637    
   4.33012676       2.50000000      -6.00000000       20.4406548       1.57079637    
   4.57987785       1.89704800      -6.00000000       20.4406548       1.57079637    
   4.57987785       1.89704800      -7.00000000       20.4406548       1.57079637    
   4.33012676       2.50000000      -6.00000000       20.4328213       1.57079637    
   4.33012676       2.50000000      -5.00000000       20.4328213       1.57079637    
   4.57987785       1.89704800      -5.00000000       20.4328213       1.57079637    
   4.57987785       1.89704800      -6.00000000       20.4328213       1.57079637    
   4.33012676       2.50000000      -5.00000000       20.4329338       1.57079637    
   4.33012676       2.50000000      -4.00000000       20.4329338       1.57079637    
   4.57987785       1.89704800      -4.00000000       20.4329338       1.57079637    
   4.57987785       1.89704800      -5.00000000       20.4329338       1.57079637    
   4.33012676       2.50000000      -4.00000000       20.4491138       1.57079637    
   4.33012676       2.50000000      -3.00000000       20.4491138       1.57079637    
   4.57987785       1.89704800      -3.00000000       20.4491138       1.57079637    
   4.57987785       1.89704800      -4.00000000       20.4491138       1.57079637    
   4.33012676       2.50000000      -3.00000000       20.4438248       1.57079649    
   4.33012676       2.50000000      -2.00000000       20.4438248       1.57079649    
   4.57987785       1.89704800      -2.00000000       20.4438248       1.57079649    
   4.57987785       1.89704800      -3.00000000       20.4438248       1.57079649    
   4.33012676       2.50000000      -2.00000000       20.4491978       1.57079637    
   4.33012676       2.50000000      -1.00000000       20.4491978       1.57079637    
   4.57987785       1.89704800      -1.00000000       20.4491978       1.57079637    
   4.57987785       1.89704800      -2.00000000       20.4491978       1.57079637    
   4.33012676       2.50000000      -1.00000000       20.3406429       1.57079637    
   4.33012676       2.50000000       0.00000000       20.3406429       1.57079637    
   4.57987785       1.89704800       0.00000000       20.3406429       1.57079637    
   4.57987785       1.89704800      -1.00000000       20.3406429       1.57079637    
   4.57987785       1.89704800      -10.0000000       19.9821625      -1.57079649    
   4.57987785       1.89704800      -9.00000000       19.9821625      -1.57079649    
   4.82962894       1.29409504      -9.00000000       19.9821625      -1.57079649    
   4.82962894       1.29409504      -10.0000000       19.9821625      -1.57079649    
   4.57987785       1.89704800      -9.00000000       20.4349995      -1.57079649    
   4.57987785       1.89704800      -8.00000000       20.4349995      -1.57079649    
   4.82962894       1.29409504      -8.00000000       20.4349995      -1.57079649    
   4.82962894       1.29409504      -9.00000000       20.4349995      -1.57079649    
   4.57987785       1.89704800      -8.00000000       20.4375076      -1.57079625    
   4.57987785       1.89704800      -7.00000000       20.4375076      -1.57079625    
   4.82962894       1.29409504      -7.00000000       20.4375076      -1.57079625    
   4.82962894       1.29409504      -8.00000000       20.4375076      -1.57079625    
   4.57987785       1.89704800      -7.00000000       20.4408245      -1.57079625    
   4.57987785       1.89704800      -6.00000000       20.4408245      -1.57079625    
   4.82962894       1.29409504      -6.00000000       20.4408245      -1.57079625    
   4.82962894       1.29409504      -7.00000000       20.4408245      -1.57079625    
   4.57987785       1.89704800      -6.00000000       20.4329815      -1.57079625    
   4.57987785       1.89704800      -5.00000000       20.4329815      -1.57079625    
   4.82962894       1.29409504      -5.00000000       20.4329815      -1.57079625    
   4.82962894       1.29409504      -6.00000000       20.4329815      -1.57079625    
   4.57987785       1.89704800      -5.00000000       20.4331532      -1.57079625    
   4.57987785       1.89704800      -4.00000000       20.4331532      -1.57079625    
   4.82962894       1.29409504      -4.00000000       20.4331532      -1.57079625    
   4.82962894       1.29409504      -5.00000000       20.4331532      -1.57079625    
   4.57987785       1.89704800      -4.00000000       20.4492378      -1.57079625    
   4.57987785       1.89704800      -3.00000000       20.4492378      -1.57079625    
   4.82962894       1.29409504      -3.00000000       20.4492378      -1.57079625    
   4.82962894       1.29409504      -4.00000000       20.4492378      -1.57079625    
   4.57987785       1.89704800      -3.00000000       20.4438477      -1.57079625    
   4.57987785       1.89704800      -2.00000000       20.4438477      -1.57079625    
   4.82962894       1.29409504      -2.00000000       20.4438477      -1.57079625    
   4.82962894       1.29409504      -3.00000000       20.4438477      -1.57079625    
   4.57987785       1.89704800      -2.00000000       20.4492474      -1.57079625    
   4.57987785       1.89704800      -1.00000000       20.4492474      -1.57079625    
   4.82962894       1.29409504      -1.00000000       20.4492474      -1.57079625    
   4.82962894       1.29409504      -2.00000000       20.4492474      -1.57079625    
   4.57987785       1.89704800      -1.00000000       20.3406525      -1.57079625    
   4.57987785       1.89704800       0.00000000       20.3406525      -1.57079625    
   4.82962894       1.29409504       0.00000000       20.3406525      -1.57079625    
   4.82962894       1.29409504      -1.00000000       20.3406525      -1.57079625    
   3.53553391       3.53553391      -10.0000000       19.9821091       1.57079637    
   3.53553391       3.53553391      -9.00000000       19.9821091       1.57079637    
   3.93283010       3.01776695      -9.00000000       19.9821091       1.57079637    
   3.93283010       3.01776695      -10.0000000       19.9821091       1.57079637    
   3.53553391       3.53553391      -9.00000000       20.4349022       1.57079625    
   3.53553391       3.53553391      -8.00000000       20.4349022       1.57079625    
   3.93283010       3.01776695      -8.00000000       20.4349022       1.57079625    
   3.93283010       3.01776695      -9.00000000       20.4349022       1.57079625    
   3.53553391       3.53553391      -8.00000000       20.4374142       1.57079649    
   3.53553391       3.53553391      -7.00000000       20.4374142       1.57079649    
   3.93283010       3.01776695      -7.00000000       20.4374142       1.57079649    
   3.93283010       3.01776695      -8.00000000       20.4374142       1.57079649    
   3.53553391       3.53553391      -7.00000000       20.4407063       1.57079637    
   3.53553391       3.53553391      -6.00000000       20.4407063       1.57079637    
   3.93283010       3.01776695      -6.00000000       20.4407063       1.57079637    
   3.93283010       3.01776695      -7.00000000       20.4407063       1.57079637    
   3.53553391       3.53553391      -6.00000000       20.4329205       1.57079637    
   3.53553391       3.53553391      -5.00000000       20.4329205       1.57079637    
   3.93283010       3.01776695      -5.00000000       20.4329205       1.57079637    
   3.93283010       3.01776695      -6.00000000       20.4329205       1.57079637    
   3.53553391       3.53553391      -5.00000000       20.4330578       1.57079649    
   3.53553391       3.53553391      -4.00000000       20.4330578       1.57079649    
   3.93283010       3.01776695      -4.00000000       20.4330578       1.57079649    
   3.93283010       3.01776695      -5.00000000       20.4330578       1.57079649    
   3.53553391       3.53553391      -4.00000000       20.4492207       1.57079637    
   3.53553391       3.53553391      -3.00000000       20.4492207       1.57079637    
   3.93283010       3.01776695      -3.00000000       20.4492207       1.57079637    
   3.93283010       3.01776695      -4.00000000       20.4492207       1.57079637    
   3.53553391       3.53553391      -3.00000000       20.4438725       1.57079637    
   3.53553391       3.53553391      -2.00000000       20.4438725       1.57079637    
   3.93283010       3.01776695      -2.00000000       20.4438725       1.57079637    
   3.93283010       3.01776695      -3.00000000       20.4438725       1.57079637    
   3.53553391       3.53553391      -2.00000000       20.4492607       1.57079637    
   3.53553391       3.53553391      -1.00000000       20.4492607       1.57079637    
   3.93283010       3.01776695      -1.00000000       20.4492607       1.57079637    
   3.93283010       3.01776695      -2.00000000       20.4492607       1.57079637    
   3.53553391       3.53553391      -1.00000000       20.3407059       1.57079649    
   3.53553391       3.53553391       0.00000000       20.3407059       1.57079649    
   3.93283010       3.01776695       0.00000000       20.3407059       1.57079649    
   3.93283010       3.01776695      -1.00000000       20.3407059       1.57079649    
   3.93283010       3.01776695      -10.0000000       19.9819698      -1.57079649    
   3.93283010       3.01776695      -9.00000000       19.9819698      -1.57079649    
   4.33012676       2.50000000      -9.00000000       19.9819698      -1.57079649    
   4.33012676       2.50000000      -10.0000000       19.9819698      -1.57079649    
   3.93283010       3.01776695      -9.00000000       20.4348259      -1.57079649    
   3.93283010       3.01776695      -8.00000000       20.4348259      -1.57079649    
   4.33012676       2.50000000      -8.00000000       20.4348259      -1.57079649    
   4.33012676       2.50000000      -9.00000000       20.4348259      -1.57079649    
   3.93283010       3.01776695      -8.00000000       20.4373455      -1.57079637    
   3.93283010       3.01776695      -7.00000000       20.4373455      -1.57079637    
   4.33012676       2.50000000      -7.00000000       20.4373455      -1.57079637    
   4.33012676       2.50000000      -8.00000000       20.4373455      -1.57079637    
   3.93283010       3.01776695      -7.00000000       20.4405918      -1.57079625    
   3.93283010       3.01776695      -6.00000000       20.4405918      -1.57079625    
   4.33012676       2.50000000      -6.00000000       20.4405918      -1.57079625    
   4.33012676       2.50000000      -7.00000000       20.4405918      -1.57079625    
   3.93283010       3.01776695      -6.00000000       20.4328136      -1.57079625    
   3.93283010       3.01776695      -5.00000000       20.4328136      -1.57079625    
   4.33012676       2.50000000      -5.00000000       20.4328136      -1.57079625    
   4.33012676       2.50000000      -6.00000000       20.4328136      -1.57079625    
   3.93283010       3.01776695      -5.00000000       20.4328766      -1.57079625    
   3.93283010       3.01776695      -4.00000000       20.4328766      -1.57079625    
   4.33012676       2.50000000      -4.00000000       20.4328766      -1.57079625    
   4.33012676       2.50000000      -5.00000000       20.4328766      -1.57079625    
   3.93283010       3.01776695      -4.00000000       20.4490032      -1.57079637    
   3.93283010       3.01776695      -3.00000000       20.4490032      -1.57079637    
   4.33012676       2.50000000      -3.00000000       20.4490032      -1.57079637    
   4.33012676       2.50000000      -4.00000000       20.4490032      -1.57079637    
   3.93283010       3.01776695      -3.00000000       20.4436646      -1.57079625    
   3.93283010       3.01776695      -2.00000000       20.4436646      -1.57079625    
   4.33012676       2.50000000      -2.00000000       20.4436646      -1.57079625    
   4.33012676       2.50000000      -3.00000000       20.4436646      -1.57079625    
   3.93283010       3.01776695      -2.00000000       20.4490280      -1.57079625    
   3.93283010       3.01776695      -1.00000000       20.4490280      -1.57079625    
   4.33012676       2.50000000      -1.00000000       20.4490280      -1.57079625    
   4.33012676       2.50000000      -2.00000000       20.4490280      -1.57079625    
   3.93283010       3.01776695      -1.00000000       20.3404503      -1.57079637    
   3.93283010       3.01776695       0.00000000       20.3404503      -1.57079637    
   4.33012676       2.50000000       0.00000000       20.3404503      -1.57079637    
   4.33012676       2.50000000      -1.00000000       20.3404503      -1.57079637    
   2.50000000       4.33012676      -10.0000000       19.9819221       1.57079625    
   2.50000000       4.33012676      -9.00000000       19.9819221       1.57079625    
   3.01776695       3.93283010      -9.00000000       19.9819221       1.57079625    
   3.01776695       3.93283010      -10.0000000       19.9819221       1.57079625    
   2.50000000       4.33012676      -9.00000000       20.4347401       1.57079625    
   2.50000000       4.33012676      -8.00000000       20.4347401       1.57079625    
   3.01776695       3.93283010      -8.00000000       20.4347401       1.57079625    
   3.01776695       3.93283010      -9.00000000       20.4347401       1.57079625    
   2.50000000       4.33012676      -8.00000000       20.4372616       1.57079625    
   2.50000000       4.33012676      -7.00000000       20.4372616       1.57079625    
   3.01776695       3.93283010      -7.00000000       20.4372616       1.57079625    
   3.01776695       3.93283010      -8.00000000       20.4372616       1.57079625    
   2.50000000       4.33012676      -7.00000000       20.4406223       1.57079637    
   2.50000000       4.33012676      -6.00000000       20.4406223       1.57079637    
   3.01776695       3.93283010      -6.00000000       20.4406223       1.57079637    
   3.01776695       3.93283010      -7.00000000       20.4406223       1.57079637    
   2.50000000       4.33012676      -6.00000000       20.4327736       1.57079637    
   2.50000000       4.33012676      -5.00000000       20.4327736       1.57079637    
   3.01776695       3.93283010      -5.00000000       20.4327736       1.57079637    
   3.01776695       3.93283010      -6.00000000       20.4327736       1.57079637    
   2.50000000       4.33012676      -5.00000000       20.4329414       1.57079637    
   2.50000000       4.33012676      -4.00000000       20.4329414       1.57079637    
   3.01776695       3.93283010      -4.00000000       20.4329414       1.57079637    
   3.01776695       3.93283010      -5.00000000       20.4329414       1.57079637    
   2.50000000       4.33012676      -4.00000000       20.4490814       1.57079637    
   2.50000000       4.33012676      -3.00000000       20.4490814       1.57079637    
   3.01776695       3.93283010      -3.00000000       20.4490814       1.57079637    
   3.01776695       3.93283010      -4.00000000       20.4490814       1.57079637    
   2.50000000       4.33012676      -3.00000000       20.4437523       1.57079637    
   2.50000000       4.33012676      -2.00000000       20.4437523       1.57079637    
   3.01776695       3.93283010      -2.00000000       20.4437523       1.57079637    
   3.01776695       3.93283010      -3.00000000       20.4437523       1.57079637    
   2.50000000       4.33012676      -2.00000000       20.4490833       1.57079637    
   2.50000000       4.33012676      -1.00000000       20.4490833       1.57079637    
   3.01776695       3.93283010      -1.00000000       20.4490833       1.57079637    
   3.01776695       3.93283010      -2.00000000       20.4490833       1.57079637    
   2.50000000       4.33012676      -1.00000000       20.3405151       1.57079649    
   2.50000000       4.33012676       0.00000000       20.3405151       1.57079649    
   3.01776695       3.93283010       0.00000000       20.3405151       1.57079649    
   3.01776695       3.93283010      -1.00000000       20.3405151       1.57079649    
   3.01776695       3.93283010      -10.0000000       19.9820957      -1.57079625    
   3.01776695       3.93283010      -9.00000000       19.9820957      -1.57079625    
   3.53553391       3.53553391      -9.00000000       19.9820957      -1.57079625    
   3.53553391       3.53553391      -10.0000000       19.9820957      -1.57079625    
   3.01776695       3.93283010      -9.00000000       20.4349499      -1.57079625    
   3.01776695       3.93283010      -8.00000000       20.4349499      -1.57079625    
   3.53553391       3.53553391      -8.00000000       20.4349499      -1.57079625    
   3.53553391       3.53553391      -9.00000000       20.4349499      -1.57079625    
   3.01776695       3.93283010      -8.00000000       20.4374409      -1.57079625    
   3.01776695       3.93283010      -7.00000000       20.4374409      -1.57079625    
   3.53553391       3.53553391      -7.00000000       20.4374409      -1.57079625    
   3.53553391       3.53553391      -8.00000000       20.4374409      -1.57079625    
   3.01776695       3.93283010      -7.00000000       20.4407291      -1.57079625    
   3.01776695       3.93283010      -6.00000000       20.4407291      -1.57079625    
   3.53553391       3.53553391      -6.00000000       20.4407291      -1.57079625    
   3.53553391       3.53553391      -7.00000000       20.4407291      -1.57079625    
   3.01776695       3.93283010      -6.00000000       20.4328976      -1.57079637    
   3.01776695       3.93283010      -5.00000000       20.4328976      -1.57079637    
   3.53553391       3.53553391      -5.00000000       20.4328976      -1.57079637    
   3.53553391       3.53553391      -6.00000000       20.4328976      -1.57079637    
   3.01776695       3.93283010      -5.00000000       20.4330063      -1.57079625    
   3.01776695       3.93283010      -4.00000000       20.4330063      -1.57079625    
   3.53553391       3.53553391      -4.00000000       20.4330063      -1.57079625    
   3.53553391       3.53553391      -5.00000000       20.4330063      -1.57079625    
   3.01776695       3.93283010      -4.00000000       20.4491501      -1.57079625    
   3.01776695       3.93283010      -3.00000000       20.4491501      -1.57079625    
   3.53553391       3.53553391      -3.00000000       20.4491501      -1.57079625    
   3.53553391       3.53553391      -4.00000000       20.4491501      -1.57079625    
   3.01776695       3.93283010      -3.00000000       20.4438267      -1.57079625    
   3.01776695       3.93283010      -2.00000000       20.4438267      -1.57079625    
   3.53553391       3.53553391      -2.00000000       20.4438267      -1.57079625    
   3.53553391       3.53553391      -3.00000000       20.4438267      -1.57079625    
   3.01776695       3.93283010      -2.00000000       20.4492092      -1.57079613    
   3.01776695       3.93283010      -1.00000000       20.4492092      -1.57079613    
   3.53553391       3.53553391      -1.00000000       20.4492092      -1.57079613    
   3.53553391       3.53553391      -2.00000000       20.4492092      -1.57079613    
   3.01776695       3.93283010      -1.00000000       20.3406467      -1.57079625    
   3.01776695       3.93283010       0.00000000       20.3406467      -1.57079625    
   3.53553391       3.53553391       0.00000000       20.3406467      -1.57079625    
   3.53553391       3.53553391      -1.00000000       20.3406467      -1.57079625    
   1.29409504       4.82962894      -10.0000000       19.9821129       1.57079625    
   1.29409504       4.82962894      -9.00000000       19.9821129       1.57079625    
   1.89704800       4.57987785      -9.00000000       19.9821129       1.57079625    
   1.89704800       4.57987785      -10.0000000       19.9821129       1.57079625    
   1.29409504       4.82962894      -9.00000000       20.4349117       1.57079625    
   1.29409504       4.82962894      -8.00000000       20.4349117       1.57079625    
   1.89704800       4.57987785      -8.00000000       20.4349117       1.57079625    
   1.89704800       4.57987785      -9.00000000       20.4349117       1.57079625    
   1.29409504       4.82962894      -8.00000000       20.4374199       1.57079637    
   1.29409504       4.82962894      -7.00000000       20.4374199       1.57079637    
   1.89704800       4.57987785      -7.00000000       20.4374199       1.57079637    
   1.89704800       4.57987785      -8.00000000       20.4374199       1.57079637    
   1.29409504       4.82962894      -7.00000000       20.4407387       1.57079637    
   1.29409504       4.82962894      -6.00000000       20.4407387       1.57079637    
   1.89704800       4.57987785      -6.00000000       20.4407387       1.57079637    
   1.89704800       4.57987785      -7.00000000       20.4407387       1.57079637    
   1.29409504       4.82962894      -6.00000000       20.4329720       1.57079637    
   1.29409504       4.82962894      -5.00000000       20.4329720       1.57079637    
   1.89704800       4.57987785      -5.00000000       20.4329720       1.57079637    
   1.89704800       4.57987785      -6.00000000       20.4329720       1.57079637    
   1.29409504       4.82962894      -5.00000000       20.4331455       1.57079637    
   1.29409504       4.82962894      -4.00000000       20.4331455       1.57079637    
   1.89704800       4.57987785      -4.00000000       20.4331455       1.57079637    
   1.89704800       4.57987785      -5.00000000       20.4331455       1.57079637    
   1.29409504       4.82962894      -4.00000000       20.4492817       1.57079649    
   1.29409504       4.82962894      -3.00000000       20.4492817       1.57079649    
   1.89704800       4.57987785      -3.00000000       20.4492817       1.57079649    