 VARIABLES="X" "Y" "Z" "abs(p) (Pa)" "angle(p) (rad)"
ZONE N=   1080,E =     600, F=FEPOINT, ET=QUADRILATERAL
   4.82962894       1.29409504      -10.0000000       86.8011398       1.57079649    
   4.82962894       1.29409504      -9.00000000       86.8011398       1.57079649    
   4.91481400      0.647047520      -9.00000000       86.8011398       1.57079649    
   4.91481400      0.647047520      -10.0000000       86.8011398       1.57079649    
   4.82962894       1.29409504      -9.00000000       88.7681732       1.57079625    
   4.82962894       1.29409504      -8.00000000       88.7681732       1.57079625    
   4.91481400      0.647047520      -8.00000000       88.7681732       1.57079625    
   4.91481400      0.647047520      -9.00000000       88.7681732       1.57079625    
   4.82962894       1.29409504      -8.00000000       88.7789001       1.57079673    
   4.82962894       1.29409504      -7.00000000       88.7789001       1.57079673    
   4.91481400      0.647047520      -7.00000000       88.7789001       1.57079673    
   4.91481400      0.647047520      -8.00000000       88.7789001       1.57079673    
   4.82962894       1.29409504      -7.00000000       88.7929840       1.57079709    
   4.82962894       1.29409504      -6.00000000       88.7929840       1.57079709    
   4.91481400      0.647047520      -6.00000000       88.7929840       1.57079709    
   4.91481400      0.647047520      -7.00000000       88.7929840       1.57079709    
   4.82962894       1.29409504      -6.00000000       88.7589722       1.57079661    
   4.82962894       1.29409504      -5.00000000       88.7589722       1.57079661    
   4.91481400      0.647047520      -5.00000000       88.7589722       1.57079661    
   4.91481400      0.647047520      -6.00000000       88.7589722       1.57079661    
   4.82962894       1.29409504      -5.00000000       88.7599869       1.57079685    
   4.82962894       1.29409504      -4.00000000       88.7599869       1.57079685    
   4.91481400      0.647047520      -4.00000000       88.7599869       1.57079685    
   4.91481400      0.647047520      -5.00000000       88.7599869       1.57079685    
   4.82962894       1.29409504      -4.00000000       88.8299713       1.57079673    
   4.82962894       1.29409504      -3.00000000       88.8299713       1.57079673    
   4.91481400      0.647047520      -3.00000000       88.8299713       1.57079673    
   4.91481400      0.647047520      -4.00000000       88.8299713       1.57079673    
   4.82962894       1.29409504      -3.00000000       88.8031921       1.57079649    
   4.82962894       1.29409504      -2.00000000       88.8031921       1.57079649    
   4.91481400      0.647047520      -2.00000000       88.8031921       1.57079649    
   4.91481400      0.647047520      -3.00000000       88.8031921       1.57079649    
   4.82962894       1.29409504      -2.00000000       88.8206940       1.57079601    
   4.82962894       1.29409504      -1.00000000       88.8206940       1.57079601    
   4.91481400      0.647047520      -1.00000000       88.8206940       1.57079601    
   4.91481400      0.647047520      -2.00000000       88.8206940       1.57079601    
   4.82962894       1.29409504      -1.00000000       88.4276962       1.57079530    
   4.82962894       1.29409504       0.00000000       88.4276962       1.57079530    
   4.91481400      0.647047520       0.00000000       88.4276962       1.57079530    
   4.91481400      0.647047520      -1.00000000       88.4276962       1.57079530    
   4.91481400      0.647047520      -10.0000000       86.8024597      -1.57079625    
   4.91481400      0.647047520      -9.00000000       86.8024597      -1.57079625    
   5.00000000       0.00000000      -9.00000000       86.8024597      -1.57079625    
   5.00000000       0.00000000      -10.0000000       86.8024597      -1.57079625    
   4.91481400      0.647047520      -9.00000000       88.7697601      -1.57079625    
   4.91481400      0.647047520      -8.00000000       88.7697601      -1.57079625    
   5.00000000       0.00000000      -8.00000000       88.7697601      -1.57079625    
   5.00000000       0.00000000      -9.00000000       88.7697601      -1.57079625    
   4.91481400      0.647047520      -8.00000000       88.7809982      -1.57079601    
   4.91481400      0.647047520      -7.00000000       88.7809982      -1.57079601    
   5.00000000       0.00000000      -7.00000000       88.7809982      -1.57079601    
   5.00000000       0.00000000      -8.00000000       88.7809982      -1.57079601    
   4.91481400      0.647047520      -7.00000000       88.7951431      -1.57079589    
   4.91481400      0.647047520      -6.00000000       88.7951431      -1.57079589    
   5.00000000       0.00000000      -6.00000000       88.7951431      -1.57079589    
   5.00000000       0.00000000      -7.00000000       88.7951431      -1.57079589    
   4.91481400      0.647047520      -6.00000000       88.7612000      -1.57079577    
   4.91481400      0.647047520      -5.00000000       88.7612000      -1.57079577    
   5.00000000       0.00000000      -5.00000000       88.7612000      -1.57079577    
   5.00000000       0.00000000      -6.00000000       88.7612000      -1.57079577    
   4.91481400      0.647047520      -5.00000000       88.7620163      -1.57079554    
   4.91481400      0.647047520      -4.00000000       88.7620163      -1.57079554    
   5.00000000       0.00000000      -4.00000000       88.7620163      -1.57079554    
   5.00000000       0.00000000      -5.00000000       88.7620163      -1.57079554    
   4.91481400      0.647047520      -4.00000000       88.8319092      -1.57079554    
   4.91481400      0.647047520      -3.00000000       88.8319092      -1.57079554    
   5.00000000       0.00000000      -3.00000000       88.8319092      -1.57079554    
   5.00000000       0.00000000      -4.00000000       88.8319092      -1.57079554    
   4.91481400      0.647047520      -3.00000000       88.8051529      -1.57079566    
   4.91481400      0.647047520      -2.00000000       88.8051529      -1.57079566    
   5.00000000       0.00000000      -2.00000000       88.8051529      -1.57079566    
   5.00000000       0.00000000      -3.00000000       88.8051529      -1.57079566    
   4.91481400      0.647047520      -2.00000000       88.8224792      -1.57079601    
   4.91481400      0.647047520      -1.00000000       88.8224792      -1.57079601    
   5.00000000       0.00000000      -1.00000000       88.8224792      -1.57079601    
   5.00000000       0.00000000      -2.00000000       88.8224792      -1.57079601    
   4.91481400      0.647047520      -1.00000000       88.4293060      -1.57079685    
   4.91481400      0.647047520       0.00000000       88.4293060      -1.57079685    
   5.00000000       0.00000000       0.00000000       88.4293060      -1.57079685    
   5.00000000       0.00000000      -1.00000000       88.4293060      -1.57079685    
   4.33012676       2.50000000      -10.0000000       86.8019485       1.57079649    
   4.33012676       2.50000000      -9.00000000       86.8019485       1.57079649    
   4.57987785       1.89704800      -9.00000000       86.8019485       1.57079649    
   4.57987785       1.89704800      -10.0000000       86.8019485       1.57079649    
   4.33012676       2.50000000      -9.00000000       88.7692184       1.57079625    
   4.33012676       2.50000000      -8.00000000       88.7692184       1.57079625    
   4.57987785       1.89704800      -8.00000000       88.7692184       1.57079625    
   4.57987785       1.89704800      -9.00000000       88.7692184       1.57079625    
   4.33012676       2.50000000      -8.00000000       88.7799377       1.57079685    
   4.33012676       2.50000000      -7.00000000       88.7799377       1.57079685    
   4.57987785       1.89704800      -7.00000000       88.7799377       1.57079685    
   4.57987785       1.89704800      -8.00000000       88.7799377       1.57079685    
   4.33012676       2.50000000      -7.00000000       88.7939453       1.57079697    
   4.33012676       2.50000000      -6.00000000       88.7939453       1.57079697    
   4.57987785       1.89704800      -6.00000000       88.7939453       1.57079697    
   4.57987785       1.89704800      -7.00000000       88.7939453       1.57079697    
   4.33012676       2.50000000      -6.00000000       88.7601013       1.57079661    
   4.33012676       2.50000000      -5.00000000       88.7601013       1.57079661    
   4.57987785       1.89704800      -5.00000000       88.7601013       1.57079661    
   4.57987785       1.89704800      -6.00000000       88.7601013       1.57079661    
   4.33012676       2.50000000      -5.00000000       88.7610855       1.57079732    
   4.33012676       2.50000000      -4.00000000       88.7610855       1.57079732    
   4.57987785       1.89704800      -4.00000000       88.7610855       1.57079732    
   4.57987785       1.89704800      -5.00000000       88.7610855       1.57079732    
   4.33012676       2.50000000      -4.00000000       88.8309631       1.57079649    
   4.33012676       2.50000000      -3.00000000       88.8309631       1.57079649    
   4.57987785       1.89704800      -3.00000000       88.8309631       1.57079649    
   4.57987785       1.89704800      -4.00000000       88.8309631       1.57079649    
   4.33012676       2.50000000      -3.00000000       88.8044662       1.57079685    
   4.33012676       2.50000000      -2.00000000       88.8044662       1.57079685    
   4.57987785       1.89704800      -2.00000000       88.8044662       1.57079685    
   4.57987785       1.89704800      -3.00000000       88.8044662       1.57079685    
   4.33012676       2.50000000      -2.00000000       88.8216553       1.57079589    
   4.33012676       2.50000000      -1.00000000       88.8216553       1.57079589    
   4.57987785       1.89704800      -1.00000000       88.8216553       1.57079589    
   4.57987785       1.89704800      -2.00000000       88.8216553       1.57079589    
   4.33012676       2.50000000      -1.00000000       88.4287949       1.57079542    
   4.33012676       2.50000000       0.00000000       88.4287949       1.57079542    
   4.57987785       1.89704800       0.00000000       88.4287949       1.57079542    
   4.57987785       1.89704800      -1.00000000       88.4287949       1.57079542    
   4.57987785       1.89704800      -10.0000000       86.8025665      -1.57079601    
   4.57987785       1.89704800      -9.00000000       86.8025665      -1.57079601    
   4.82962894       1.29409504      -9.00000000       86.8025665      -1.57079601    
   4.82962894       1.29409504      -10.0000000       86.8025665      -1.57079601    
   4.57987785       1.89704800      -9.00000000       88.7700348      -1.57079577    
   4.57987785       1.89704800      -8.00000000       88.7700348      -1.57079577    
   4.82962894       1.29409504      -8.00000000       88.7700348      -1.57079577    
   4.82962894       1.29409504      -9.00000000       88.7700348      -1.57079577    
   4.57987785       1.89704800      -8.00000000       88.7809448      -1.57079589    
   4.57987785       1.89704800      -7.00000000       88.7809448      -1.57079589    
   4.82962894       1.29409504      -7.00000000       88.7809448      -1.57079589    
   4.82962894       1.29409504      -8.00000000       88.7809448      -1.57079589    
   4.57987785       1.89704800      -7.00000000       88.7952499      -1.57079554    
   4.57987785       1.89704800      -6.00000000       88.7952499      -1.57079554    
   4.82962894       1.29409504      -6.00000000       88.7952499      -1.57079554    
   4.82962894       1.29409504      -7.00000000       88.7952499      -1.57079554    
   4.57987785       1.89704800      -6.00000000       88.7612381      -1.57079589    
   4.57987785       1.89704800      -5.00000000       88.7612381      -1.57079589    
   4.82962894       1.29409504      -5.00000000       88.7612381      -1.57079589    
   4.82962894       1.29409504      -6.00000000       88.7612381      -1.57079589    
   4.57987785       1.89704800      -5.00000000       88.7620087      -1.57079518    
   4.57987785       1.89704800      -4.00000000       88.7620087      -1.57079518    
   4.82962894       1.29409504      -4.00000000       88.7620087      -1.57079518    
   4.82962894       1.29409504      -5.00000000       88.7620087      -1.57079518    
   4.57987785       1.89704800      -4.00000000       88.8317413      -1.57079589    
   4.57987785       1.89704800      -3.00000000       88.8317413      -1.57079589    
   4.82962894       1.29409504      -3.00000000       88.8317413      -1.57079589    
   4.82962894       1.29409504      -4.00000000       88.8317413      -1.57079589    
   4.57987785       1.89704800      -3.00000000       88.8051453      -1.57079613    
   4.57987785       1.89704800      -2.00000000       88.8051453      -1.57079613    
   4.82962894       1.29409504      -2.00000000       88.8051453      -1.57079613    
   4.82962894       1.29409504      -3.00000000       88.8051453      -1.57079613    
   4.57987785       1.89704800      -2.00000000       88.8224411      -1.57079601    
   4.57987785       1.89704800      -1.00000000       88.8224411      -1.57079601    
   4.82962894       1.29409504      -1.00000000       88.8224411      -1.57079601    
   4.82962894       1.29409504      -2.00000000       88.8224411      -1.57079601    
   4.57987785       1.89704800      -1.00000000       88.4295883      -1.57079637    
   4.57987785       1.89704800       0.00000000       88.4295883      -1.57079637    
   4.82962894       1.29409504       0.00000000       88.4295883      -1.57079637    
   4.82962894       1.29409504      -1.00000000       88.4295883      -1.57079637    
   3.53553391       3.53553391      -10.0000000       86.8024216       1.57079625    
   3.53553391       3.53553391      -9.00000000       86.8024216       1.57079625    
   3.93283010       3.01776695      -9.00000000       86.8024216       1.57079625    
   3.93283010       3.01776695      -10.0000000       86.8024216       1.57079625    
   3.53553391       3.53553391      -9.00000000       88.7694321       1.57079613    
   3.53553391       3.53553391      -8.00000000       88.7694321       1.57079613    
   3.93283010       3.01776695      -8.00000000       88.7694321       1.57079613    
   3.93283010       3.01776695      -9.00000000       88.7694321       1.57079613    
   3.53553391       3.53553391      -8.00000000       88.7803497       1.57079601    
   3.53553391       3.53553391      -7.00000000       88.7803497       1.57079601    
   3.93283010       3.01776695      -7.00000000       88.7803497       1.57079601    
   3.93283010       3.01776695      -8.00000000       88.7803497       1.57079601    
   3.53553391       3.53553391      -7.00000000       88.7944183       1.57079637    
   3.53553391       3.53553391      -6.00000000       88.7944183       1.57079637    
   3.93283010       3.01776695      -6.00000000       88.7944183       1.57079637    
   3.93283010       3.01776695      -7.00000000       88.7944183       1.57079637    
   3.53553391       3.53553391      -6.00000000       88.7605896       1.57079601    
   3.53553391       3.53553391      -5.00000000       88.7605896       1.57079601    
   3.93283010       3.01776695      -5.00000000       88.7605896       1.57079601    
   3.93283010       3.01776695      -6.00000000       88.7605896       1.57079601    
   3.53553391       3.53553391      -5.00000000       88.7612305       1.57079649    
   3.53553391       3.53553391      -4.00000000       88.7612305       1.57079649    
   3.93283010       3.01776695      -4.00000000       88.7612305       1.57079649    
   3.93283010       3.01776695      -5.00000000       88.7612305       1.57079649    
   3.53553391       3.53553391      -4.00000000       88.8311768       1.57079625    
   3.53553391       3.53553391      -3.00000000       88.8311768       1.57079625    
   3.93283010       3.01776695      -3.00000000       88.8311768       1.57079625    
   3.93283010       3.01776695      -4.00000000       88.8311768       1.57079625    
   3.53553391       3.53553391      -3.00000000       88.8044510       1.57079625    
   3.53553391       3.53553391      -2.00000000       88.8044510       1.57079625    
   3.93283010       3.01776695      -2.00000000       88.8044510       1.57079625    
   3.93283010       3.01776695      -3.00000000       88.8044510       1.57079625    
   3.53553391       3.53553391      -2.00000000       88.8218002       1.57079554    
   3.53553391       3.53553391      -1.00000000       88.8218002       1.57079554    
   3.93283010       3.01776695      -1.00000000       88.8218002       1.57079554    
   3.93283010       3.01776695      -2.00000000       88.8218002       1.57079554    
   3.53553391       3.53553391      -1.00000000       88.4288406       1.57079494    
   3.53553391       3.53553391       0.00000000       88.4288406       1.57079494    
   3.93283010       3.01776695       0.00000000       88.4288406       1.57079494    
   3.93283010       3.01776695      -1.00000000       88.4288406       1.57079494    
   3.93283010       3.01776695      -10.0000000       86.8016281      -1.57079601    
   3.93283010       3.01776695      -9.00000000       86.8016281      -1.57079601    
   4.33012676       2.50000000      -9.00000000       86.8016281      -1.57079601    
   4.33012676       2.50000000      -10.0000000       86.8016281      -1.57079601    
   3.93283010       3.01776695      -9.00000000       88.7691040      -1.57079601    
   3.93283010       3.01776695      -8.00000000       88.7691040      -1.57079601    
   4.33012676       2.50000000      -8.00000000       88.7691040      -1.57079601    
   4.33012676       2.50000000      -9.00000000       88.7691040      -1.57079601    
   3.93283010       3.01776695      -8.00000000       88.7800217      -1.57079577    
   3.93283010       3.01776695      -7.00000000       88.7800217      -1.57079577    
   4.33012676       2.50000000      -7.00000000       88.7800217      -1.57079577    
   4.33012676       2.50000000      -8.00000000       88.7800217      -1.57079577    
   3.93283010       3.01776695      -7.00000000       88.7943192      -1.57079566    
   3.93283010       3.01776695      -6.00000000       88.7943192      -1.57079566    
   4.33012676       2.50000000      -6.00000000       88.7943192      -1.57079566    
   4.33012676       2.50000000      -7.00000000       88.7943192      -1.57079566    
   3.93283010       3.01776695      -6.00000000       88.7603073      -1.57079613    
   3.93283010       3.01776695      -5.00000000       88.7603073      -1.57079613    
   4.33012676       2.50000000      -5.00000000       88.7603073      -1.57079613    
   4.33012676       2.50000000      -6.00000000       88.7603073      -1.57079613    
   3.93283010       3.01776695      -5.00000000       88.7613297      -1.57079554    
   3.93283010       3.01776695      -4.00000000       88.7613297      -1.57079554    
   4.33012676       2.50000000      -4.00000000       88.7613297      -1.57079554    
   4.33012676       2.50000000      -5.00000000       88.7613297      -1.57079554    
   3.93283010       3.01776695      -4.00000000       88.8311768      -1.57079577    
   3.93283010       3.01776695      -3.00000000       88.8311768      -1.57079577    
   4.33012676       2.50000000      -3.00000000       88.8311768      -1.57079577    
   4.33012676       2.50000000      -4.00000000       88.8311768      -1.57079577    
   3.93283010       3.01776695      -3.00000000       88.8044281      -1.57079625    
   3.93283010       3.01776695      -2.00000000       88.8044281      -1.57079625    
   4.33012676       2.50000000      -2.00000000       88.8044281      -1.57079625    
   4.33012676       2.50000000      -3.00000000       88.8044281      -1.57079625    
   3.93283010       3.01776695      -2.00000000       88.8216858      -1.57079601    
   3.93283010       3.01776695      -1.00000000       88.8216858      -1.57079601    
   4.33012676       2.50000000      -1.00000000       88.8216858      -1.57079601    
   4.33012676       2.50000000      -2.00000000       88.8216858      -1.57079601    
   3.93283010       3.01776695      -1.00000000       88.4287262      -1.57079673    
   3.93283010       3.01776695       0.00000000       88.4287262      -1.57079673    
   4.33012676       2.50000000       0.00000000       88.4287262      -1.57079673    
   4.33012676       2.50000000      -1.00000000       88.4287262      -1.57079673    
   2.50000000       4.33012676      -10.0000000       86.8016357       1.57079649    
   2.50000000       4.33012676      -9.00000000       86.8016357       1.57079649    
   3.01776695       3.93283010      -9.00000000       86.8016357       1.57079649    
   3.01776695       3.93283010      -10.0000000       86.8016357       1.57079649    
   2.50000000       4.33012676      -9.00000000       88.7688065       1.57079625    
   2.50000000       4.33012676      -8.00000000       88.7688065       1.57079625    
   3.01776695       3.93283010      -8.00000000       88.7688065       1.57079625    
   3.01776695       3.93283010      -9.00000000       88.7688065       1.57079625    
   2.50000000       4.33012676      -8.00000000       88.7796478       1.57079649    
   2.50000000       4.33012676      -7.00000000       88.7796478       1.57079649    
   3.01776695       3.93283010      -7.00000000       88.7796478       1.57079649    
   3.01776695       3.93283010      -8.00000000       88.7796478       1.57079649    
   2.50000000       4.33012676      -7.00000000       88.7938080       1.57079697    
   2.50000000       4.33012676      -6.00000000       88.7938080       1.57079697    
   3.01776695       3.93283010      -6.00000000       88.7938080       1.57079697    
   3.01776695       3.93283010      -7.00000000       88.7938080       1.57079697    
   2.50000000       4.33012676      -6.00000000       88.7600479       1.57079709    
   2.50000000       4.33012676      -5.00000000       88.7600479       1.57079709    
   3.01776695       3.93283010      -5.00000000       88.7600479       1.57079709    
   3.01776695       3.93283010      -6.00000000       88.7600479       1.57079709    
   2.50000000       4.33012676      -5.00000000       88.7607040       1.57079637    
   2.50000000       4.33012676      -4.00000000       88.7607040       1.57079637    
   3.01776695       3.93283010      -4.00000000       88.7607040       1.57079637    
   3.01776695       3.93283010      -5.00000000       88.7607040       1.57079637    
   2.50000000       4.33012676      -4.00000000       88.8305740       1.57079685    
   2.50000000       4.33012676      -3.00000000       88.8305740       1.57079685    
   3.01776695       3.93283010      -3.00000000       88.8305740       1.57079685    
   3.01776695       3.93283010      -4.00000000       88.8305740       1.57079685    
   2.50000000       4.33012676      -3.00000000       88.8038483       1.57079649    
   2.50000000       4.33012676      -2.00000000       88.8038483       1.57079649    
   3.01776695       3.93283010      -2.00000000       88.8038483       1.57079649    
   3.01776695       3.93283010      -3.00000000       88.8038483       1.57079649    
   2.50000000       4.33012676      -2.00000000       88.8209152       1.57079601    
   2.50000000       4.33012676      -1.00000000       88.8209152       1.57079601    
   3.01776695       3.93283010      -1.00000000       88.8209152       1.57079601    
   3.01776695       3.93283010      -2.00000000       88.8209152       1.57079601    
   2.50000000       4.33012676      -1.00000000       88.4283142       1.57079589    
   2.50000000       4.33012676       0.00000000       88.4283142       1.57079589    
   3.01776695       3.93283010       0.00000000       88.4283142       1.57079589    
   3.01776695       3.93283010      -1.00000000       88.4283142       1.57079589    
   3.01776695       3.93283010      -10.0000000       86.8023682      -1.57079601    
   3.01776695       3.93283010      -9.00000000       86.8023682      -1.57079601    
   3.53553391       3.53553391      -9.00000000       86.8023682      -1.57079601    
   3.53553391       3.53553391      -10.0000000       86.8023682      -1.57079601    
   3.01776695       3.93283010      -9.00000000       88.7697678      -1.57079613    
   3.01776695       3.93283010      -8.00000000       88.7697678      -1.57079613    
   3.53553391       3.53553391      -8.00000000       88.7697678      -1.57079613    
   3.53553391       3.53553391      -9.00000000       88.7697678      -1.57079613    
   3.01776695       3.93283010      -8.00000000       88.7806854      -1.57079649    
   3.01776695       3.93283010      -7.00000000       88.7806854      -1.57079649    
   3.53553391       3.53553391      -7.00000000       88.7806854      -1.57079649    
   3.53553391       3.53553391      -8.00000000       88.7806854      -1.57079649    
   3.01776695       3.93283010      -7.00000000       88.7949677      -1.57079577    
   3.01776695       3.93283010      -6.00000000       88.7949677      -1.57079577    
   3.53553391       3.53553391      -6.00000000       88.7949677      -1.57079577    
   3.53553391       3.53553391      -7.00000000       88.7949677      -1.57079577    
   3.01776695       3.93283010      -6.00000000       88.7609024      -1.57079589    
   3.01776695       3.93283010      -5.00000000       88.7609024      -1.57079589    
   3.53553391       3.53553391      -5.00000000       88.7609024      -1.57079589    
   3.53553391       3.53553391      -6.00000000       88.7609024      -1.57079589    
   3.01776695       3.93283010      -5.00000000       88.7619629      -1.57079589    
   3.01776695       3.93283010      -4.00000000       88.7619629      -1.57079589    
   3.53553391       3.53553391      -4.00000000       88.7619629      -1.57079589    
   3.53553391       3.53553391      -5.00000000       88.7619629      -1.57079589    
   3.01776695       3.93283010      -4.00000000       88.8317261      -1.57079601    
   3.01776695       3.93283010      -3.00000000       88.8317261      -1.57079601    
   3.53553391       3.53553391      -3.00000000       88.8317261      -1.57079601    
   3.53553391       3.53553391      -4.00000000       88.8317261      -1.57079601    
   3.01776695       3.93283010      -3.00000000       88.8051071      -1.57079685    
   3.01776695       3.93283010      -2.00000000       88.8051071      -1.57079685    
   3.53553391       3.53553391      -2.00000000       88.8051071      -1.57079685    
   3.53553391       3.53553391      -3.00000000       88.8051071      -1.57079685    
   3.01776695       3.93283010      -2.00000000       88.8223114      -1.57079720    
   3.01776695       3.93283010      -1.00000000       88.8223114      -1.57079720    
   3.53553391       3.53553391      -1.00000000       88.8223114      -1.57079720    
   3.53553391       3.53553391      -2.00000000       88.8223114      -1.57079720    
   3.01776695       3.93283010      -1.00000000       88.4295883      -1.57079720    
   3.01776695       3.93283010       0.00000000       88.4295883      -1.57079720    
   3.53553391       3.53553391       0.00000000       88.4295883      -1.57079720    
   3.53553391       3.53553391      -1.00000000       88.4295883      -1.57079720    
   1.29409504       4.82962894      -10.0000000       86.8022842       1.57079625    
   1.29409504       4.82962894      -9.00000000       86.8022842       1.57079625    
   1.89704800       4.57987785      -9.00000000       86.8022842       1.57079625    
   1.89704800       4.57987785      -10.0000000       86.8022842       1.57079625    
   1.29409504       4.82962894      -9.00000000       88.7695618       1.57079613    
   1.29409504       4.82962894      -8.00000000       88.7695618       1.57079613    
   1.89704800       4.57987785      -8.00000000       88.7695618       1.57079613    
   1.89704800       4.57987785      -9.00000000       88.7695618       1.57079613    
   1.29409504       4.82962894      -8.00000000       88.7803955       1.57079637    
   1.29409504       4.82962894      -7.00000000       88.7803955       1.57079637    
   1.89704800       4.57987785      -7.00000000       88.7803955       1.57079637    
   1.89704800       4.57987785      -8.00000000       88.7803955       1.57079637    
   1.29409504       4.82962894      -7.00000000       88.7947998       1.57079637    
   1.29409504       4.82962894      -6.00000000       88.7947998       1.57079637    
   1.89704800       4.57987785      -6.00000000       88.7947998       1.57079637    
   1.89704800       4.57987785      -7.00000000       88.7947998       1.57079637    
   1.29409504       4.82962894      -6.00000000       88.7612076       1.57079637    
   1.29409504       4.82962894      -5.00000000       88.7612076       1.57079637    
   1.89704800       4.57987785      -5.00000000       88.7612076       1.57079637    
   1.89704800       4.57987785      -6.00000000       88.7612076       1.57079637    
   1.29409504       4.82962894      -5.00000000       88.7619629       1.57079685    
   1.29409504       4.82962894      -4.00000000       88.7619629       1.57079685    
   1.89704800       4.57987785      -4.00000000       88.7619629       1.57079685    
   1.89704800       4.57987785      -5.00000000       88.7619629       1.57079685    
   1.29409504       4.82962894      -4.00000000       88.8314285       1.57079649    
   1.29409504       4.82962894      -3.00000000       88.8314285       1.57079649    
   1.89704800       4.57987785      -3.00000000       88.8314285       1.57079649    