 VARIABLES="X" "Y" "Z" "abs(p) (Pa)" "angle(p) (rad)"
ZONE N=   1080,E =     600, F=FEPOINT, ET=QUADRILATERAL
   4.82962894       1.29409504      -10.0000000       330.850128      -1.83431315    
   4.82962894       1.29409504      -9.00000000       330.850128      -1.83431315    
   4.91481400      0.647047520      -9.00000000       330.850128      -1.83431315    
   4.91481400      0.647047520      -10.0000000       330.850128      -1.83431315    
   4.82962894       1.29409504      -9.00000000       493.809631      -1.88108790    
   4.82962894       1.29409504      -8.00000000       493.809631      -1.88108790    
   4.91481400      0.647047520      -8.00000000       493.809631      -1.88108790    
   4.91481400      0.647047520      -9.00000000       493.809631      -1.88108790    
   4.82962894       1.29409504      -8.00000000       722.688965      -1.89542687    
   4.82962894       1.29409504      -7.00000000       722.688965      -1.89542687    
   4.91481400      0.647047520      -7.00000000       722.688965      -1.89542687    
   4.91481400      0.647047520      -8.00000000       722.688965      -1.89542687    
   4.82962894       1.29409504      -7.00000000       1054.27002      -1.90045631    
   4.82962894       1.29409504      -6.00000000       1054.27002      -1.90045631    
   4.91481400      0.647047520      -6.00000000       1054.27002      -1.90045631    
   4.91481400      0.647047520      -7.00000000       1054.27002      -1.90045631    
   4.82962894       1.29409504      -6.00000000       1537.35645      -1.90187860    
   4.82962894       1.29409504      -5.00000000       1537.35645      -1.90187860    
   4.91481400      0.647047520      -5.00000000       1537.35645      -1.90187860    
   4.91481400      0.647047520      -6.00000000       1537.35645      -1.90187860    
   4.82962894       1.29409504      -5.00000000       2241.50586      -1.90174770    
   4.82962894       1.29409504      -4.00000000       2241.50586      -1.90174770    
   4.91481400      0.647047520      -4.00000000       2241.50586      -1.90174770    
   4.91481400      0.647047520      -5.00000000       2241.50586      -1.90174770    
   4.82962894       1.29409504      -4.00000000       3268.42554      -1.90072548    
   4.82962894       1.29409504      -3.00000000       3268.42554      -1.90072548    
   4.91481400      0.647047520      -3.00000000       3268.42554      -1.90072548    
   4.91481400      0.647047520      -4.00000000       3268.42554      -1.90072548    
   4.82962894       1.29409504      -3.00000000       4766.48047      -1.89881825    
   4.82962894       1.29409504      -2.00000000       4766.48047      -1.89881825    
   4.91481400      0.647047520      -2.00000000       4766.48047      -1.89881825    
   4.91481400      0.647047520      -3.00000000       4766.48047      -1.89881825    
   4.82962894       1.29409504      -2.00000000       6950.38525      -1.89653766    
   4.82962894       1.29409504      -1.00000000       6950.38525      -1.89653766    
   4.91481400      0.647047520      -1.00000000       6950.38525      -1.89653766    
   4.91481400      0.647047520      -2.00000000       6950.38525      -1.89653766    
   4.82962894       1.29409504      -1.00000000       10131.4814      -1.89278650    
   4.82962894       1.29409504       0.00000000       10131.4814      -1.89278650    
   4.91481400      0.647047520       0.00000000       10131.4814      -1.89278650    
   4.91481400      0.647047520      -1.00000000       10131.4814      -1.89278650    
   4.91481400      0.647047520      -10.0000000       345.668060      -1.82056725    
   4.91481400      0.647047520      -9.00000000       345.668060      -1.82056725    
   5.00000000       0.00000000      -9.00000000       345.668060      -1.82056725    
   5.00000000       0.00000000      -10.0000000       345.668060      -1.82056725    
   4.91481400      0.647047520      -9.00000000       517.746338      -1.86667538    
   4.91481400      0.647047520      -8.00000000       517.746338      -1.86667538    
   5.00000000       0.00000000      -8.00000000       517.746338      -1.86667538    
   5.00000000       0.00000000      -9.00000000       517.746338      -1.86667538    
   4.91481400      0.647047520      -8.00000000       758.442871      -1.88089049    
   4.91481400      0.647047520      -7.00000000       758.442871      -1.88089049    
   5.00000000       0.00000000      -7.00000000       758.442871      -1.88089049    
   5.00000000       0.00000000      -8.00000000       758.442871      -1.88089049    
   4.91481400      0.647047520      -7.00000000       1106.74072      -1.88594341    
   4.91481400      0.647047520      -6.00000000       1106.74072      -1.88594341    
   5.00000000       0.00000000      -6.00000000       1106.74072      -1.88594341    
   5.00000000       0.00000000      -7.00000000       1106.74072      -1.88594341    
   4.91481400      0.647047520      -6.00000000       1613.97363      -1.88742232    
   4.91481400      0.647047520      -5.00000000       1613.97363      -1.88742232    
   5.00000000       0.00000000      -5.00000000       1613.97363      -1.88742232    
   5.00000000       0.00000000      -6.00000000       1613.97363      -1.88742232    
   4.91481400      0.647047520      -5.00000000       2353.14526      -1.88736272    
   4.91481400      0.647047520      -4.00000000       2353.14526      -1.88736272    
   5.00000000       0.00000000      -4.00000000       2353.14526      -1.88736272    
   5.00000000       0.00000000      -5.00000000       2353.14526      -1.88736272    
   4.91481400      0.647047520      -4.00000000       3430.89355      -1.88643610    
   4.91481400      0.647047520      -3.00000000       3430.89355      -1.88643610    
   5.00000000       0.00000000      -3.00000000       3430.89355      -1.88643610    
   5.00000000       0.00000000      -4.00000000       3430.89355      -1.88643610    
   4.91481400      0.647047520      -3.00000000       5002.72461      -1.88465989    
   4.91481400      0.647047520      -2.00000000       5002.72461      -1.88465989    
   5.00000000       0.00000000      -2.00000000       5002.72461      -1.88465989    
   5.00000000       0.00000000      -3.00000000       5002.72461      -1.88465989    
   4.91481400      0.647047520      -2.00000000       7293.65869      -1.88253510    
   4.91481400      0.647047520      -1.00000000       7293.65869      -1.88253510    
   5.00000000       0.00000000      -1.00000000       7293.65869      -1.88253510    
   5.00000000       0.00000000      -2.00000000       7293.65869      -1.88253510    
   4.91481400      0.647047520      -1.00000000       10629.0547      -1.87908566    
   4.91481400      0.647047520       0.00000000       10629.0547      -1.87908566    
   5.00000000       0.00000000       0.00000000       10629.0547      -1.87908566    
   5.00000000       0.00000000      -1.00000000       10629.0547      -1.87908566    
   4.33012676       2.50000000      -10.0000000       260.267944      -1.90268552    
   4.33012676       2.50000000      -9.00000000       260.267944      -1.90268552    
   4.57987785       1.89704800      -9.00000000       260.267944      -1.90268552    
   4.57987785       1.89704800      -10.0000000       260.267944      -1.90268552    
   4.33012676       2.50000000      -9.00000000       379.454346      -1.95340765    
   4.33012676       2.50000000      -8.00000000       379.454346      -1.95340765    
   4.57987785       1.89704800      -8.00000000       379.454346      -1.95340765    
   4.57987785       1.89704800      -9.00000000       379.454346      -1.95340765    
   4.33012676       2.50000000      -8.00000000       551.873352      -1.96853828    
   4.33012676       2.50000000      -7.00000000       551.873352      -1.96853828    
   4.57987785       1.89704800      -7.00000000       551.873352      -1.96853828    
   4.57987785       1.89704800      -8.00000000       551.873352      -1.96853828    
   4.33012676       2.50000000      -7.00000000       803.571899      -1.97340059    
   4.33012676       2.50000000      -6.00000000       803.571899      -1.97340059    
   4.57987785       1.89704800      -6.00000000       803.571899      -1.97340059    
   4.57987785       1.89704800      -7.00000000       803.571899      -1.97340059    
   4.33012676       2.50000000      -6.00000000       1171.27148      -1.97443581    
   4.33012676       2.50000000      -5.00000000       1171.27148      -1.97443581    
   4.57987785       1.89704800      -5.00000000       1171.27148      -1.97443581    
   4.57987785       1.89704800      -6.00000000       1171.27148      -1.97443581    
   4.33012676       2.50000000      -5.00000000       1708.04456      -1.97381508    
   4.33012676       2.50000000      -4.00000000       1708.04456      -1.97381508    
   4.57987785       1.89704800      -4.00000000       1708.04456      -1.97381508    
   4.57987785       1.89704800      -5.00000000       1708.04456      -1.97381508    
   4.33012676       2.50000000      -4.00000000       2491.90649      -1.97215307    
   4.33012676       2.50000000      -3.00000000       2491.90649      -1.97215307    
   4.57987785       1.89704800      -3.00000000       2491.90649      -1.97215307    
   4.57987785       1.89704800      -4.00000000       2491.90649      -1.97215307    
   4.33012676       2.50000000      -3.00000000       3637.24316      -1.96938336    
   4.33012676       2.50000000      -2.00000000       3637.24316      -1.96938336    
   4.57987785       1.89704800      -2.00000000       3637.24316      -1.96938336    
   4.57987785       1.89704800      -3.00000000       3637.24316      -1.96938336    
   4.33012676       2.50000000      -2.00000000       5309.47070      -1.96608257    
   4.33012676       2.50000000      -1.00000000       5309.47070      -1.96608257    
   4.57987785       1.89704800      -1.00000000       5309.47070      -1.96608257    
   4.57987785       1.89704800      -2.00000000       5309.47070      -1.96608257    
   4.33012676       2.50000000      -1.00000000       7754.26221      -1.96040404    
   4.33012676       2.50000000       0.00000000       7754.26221      -1.96040404    
   4.57987785       1.89704800       0.00000000       7754.26221      -1.96040404    
   4.57987785       1.89704800      -1.00000000       7754.26221      -1.96040404    
   4.57987785       1.89704800      -10.0000000       299.477722      -1.85988617    
   4.57987785       1.89704800      -9.00000000       299.477722      -1.85988617    
   4.82962894       1.29409504      -9.00000000       299.477722      -1.85988617    
   4.82962894       1.29409504      -10.0000000       299.477722      -1.85988617    
   4.57987785       1.89704800      -9.00000000       442.700409      -1.90822089    
   4.57987785       1.89704800      -8.00000000       442.700409      -1.90822089    
   4.82962894       1.29409504      -8.00000000       442.700409      -1.90822089    
   4.82962894       1.29409504      -9.00000000       442.700409      -1.90822089    
   4.57987785       1.89704800      -8.00000000       646.312744      -1.92288852    
   4.57987785       1.89704800      -7.00000000       646.312744      -1.92288852    
   4.82962894       1.29409504      -7.00000000       646.312744      -1.92288852    
   4.82962894       1.29409504      -8.00000000       646.312744      -1.92288852    
   4.57987785       1.89704800      -7.00000000       942.166382      -1.92786229    
   4.57987785       1.89704800      -6.00000000       942.166382      -1.92786229    
   4.82962894       1.29409504      -6.00000000       942.166382      -1.92786229    
   4.82962894       1.29409504      -7.00000000       942.166382      -1.92786229    
   4.57987785       1.89704800      -6.00000000       1373.65686      -1.92914569    
   4.57987785       1.89704800      -5.00000000       1373.65686      -1.92914569    
   4.82962894       1.29409504      -5.00000000       1373.65686      -1.92914569    
   4.82962894       1.29409504      -6.00000000       1373.65686      -1.92914569    
   4.57987785       1.89704800      -5.00000000       2002.96460      -1.92883396    
   4.57987785       1.89704800      -4.00000000       2002.96460      -1.92883396    
   4.82962894       1.29409504      -4.00000000       2002.96460      -1.92883396    
   4.82962894       1.29409504      -5.00000000       2002.96460      -1.92883396    
   4.57987785       1.89704800      -4.00000000       2921.14941      -1.92756999    
   4.57987785       1.89704800      -3.00000000       2921.14941      -1.92756999    
   4.82962894       1.29409504      -3.00000000       2921.14941      -1.92756999    
   4.82962894       1.29409504      -4.00000000       2921.14941      -1.92756999    
   4.57987785       1.89704800      -3.00000000       4261.50391      -1.92534518    
   4.57987785       1.89704800      -2.00000000       4261.50391      -1.92534518    
   4.82962894       1.29409504      -2.00000000       4261.50391      -1.92534518    
   4.82962894       1.29409504      -3.00000000       4261.50391      -1.92534518    
   4.57987785       1.89704800      -2.00000000       6216.69531      -1.92267895    
   4.57987785       1.89704800      -1.00000000       6216.69531      -1.92267895    
   4.82962894       1.29409504      -1.00000000       6216.69531      -1.92267895    
   4.82962894       1.29409504      -2.00000000       6216.69531      -1.92267895    
   4.57987785       1.89704800      -1.00000000       9069.56152      -1.91820884    
   4.57987785       1.89704800       0.00000000       9069.56152      -1.91820884    
   4.82962894       1.29409504       0.00000000       9069.56152      -1.91820884    
   4.82962894       1.29409504      -1.00000000       9069.56152      -1.91820884    
   3.53553391       3.53553391      -10.0000000       158.694382      -2.03172493    
   3.53553391       3.53553391      -9.00000000       158.694382      -2.03172493    
   3.93283010       3.01776695      -9.00000000       158.694382      -2.03172493    
   3.93283010       3.01776695      -10.0000000       158.694382      -2.03172493    
   3.53553391       3.53553391      -9.00000000       215.181763      -2.09264731    
   3.53553391       3.53553391      -8.00000000       215.181763      -2.09264731    
   3.93283010       3.01776695      -8.00000000       215.181763      -2.09264731    
   3.93283010       3.01776695      -9.00000000       215.181763      -2.09264731    
   3.53553391       3.53553391      -8.00000000       306.594421      -2.11010718    
   3.53553391       3.53553391      -7.00000000       306.594421      -2.11010718    
   3.93283010       3.01776695      -7.00000000       306.594421      -2.11010718    
   3.93283010       3.01776695      -8.00000000       306.594421      -2.11010718    
   3.53553391       3.53553391      -7.00000000       443.571991      -2.11422753    
   3.53553391       3.53553391      -6.00000000       443.571991      -2.11422753    
   3.93283010       3.01776695      -6.00000000       443.571991      -2.11422753    
   3.93283010       3.01776695      -7.00000000       443.571991      -2.11422753    
   3.53553391       3.53553391      -6.00000000       645.502319      -2.11376977    
   3.53553391       3.53553391      -5.00000000       645.502319      -2.11376977    
   3.93283010       3.01776695      -5.00000000       645.502319      -2.11376977    
   3.93283010       3.01776695      -6.00000000       645.502319      -2.11376977    
   3.53553391       3.53553391      -5.00000000       941.744080      -2.11132765    
   3.53553391       3.53553391      -4.00000000       941.744080      -2.11132765    
   3.93283010       3.01776695      -4.00000000       941.744080      -2.11132765    
   3.93283010       3.01776695      -5.00000000       941.744080      -2.11132765    
   3.53553391       3.53553391      -4.00000000       1376.19617      -2.10736895    
   3.53553391       3.53553391      -3.00000000       1376.19617      -2.10736895    
   3.93283010       3.01776695      -3.00000000       1376.19617      -2.10736895    
   3.93283010       3.01776695      -4.00000000       1376.19617      -2.10736895    
   3.53553391       3.53553391      -3.00000000       2014.26917      -2.10157228    
   3.53553391       3.53553391      -2.00000000       2014.26917      -2.10157228    
   3.93283010       3.01776695      -2.00000000       2014.26917      -2.10157228    
   3.93283010       3.01776695      -3.00000000       2014.26917      -2.10157228    
   3.53553391       3.53553391      -2.00000000       2950.37207      -2.09477043    
   3.53553391       3.53553391      -1.00000000       2950.37207      -2.09477043    
   3.93283010       3.01776695      -1.00000000       2950.37207      -2.09477043    
   3.93283010       3.01776695      -2.00000000       2950.37207      -2.09477043    
   3.53553391       3.53553391      -1.00000000       4335.53711      -2.08275056    
   3.53553391       3.53553391       0.00000000       4335.53711      -2.08275056    
   3.93283010       3.01776695       0.00000000       4335.53711      -2.08275056    
   3.93283010       3.01776695      -1.00000000       4335.53711      -2.08275056    
   3.93283010       3.01776695      -10.0000000       208.640717      -1.95406866    
   3.93283010       3.01776695      -9.00000000       208.640717      -1.95406866    
   4.33012676       2.50000000      -9.00000000       208.640717      -1.95406866    
   4.33012676       2.50000000      -10.0000000       208.640717      -1.95406866    
   3.93283010       3.01776695      -9.00000000       295.472351      -2.00838399    
   3.93283010       3.01776695      -8.00000000       295.472351      -2.00838399    
   4.33012676       2.50000000      -8.00000000       295.472351      -2.00838399    
   4.33012676       2.50000000      -9.00000000       295.472351      -2.00838399    
   3.93283010       3.01776695      -8.00000000       426.406464      -2.02433395    
   3.93283010       3.01776695      -7.00000000       426.406464      -2.02433395    
   4.33012676       2.50000000      -7.00000000       426.406464      -2.02433395    
   4.33012676       2.50000000      -8.00000000       426.406464      -2.02433395    
   3.93283010       3.01776695      -7.00000000       619.410522      -2.02891850    
   3.93283010       3.01776695      -6.00000000       619.410522      -2.02891850    
   4.33012676       2.50000000      -6.00000000       619.410522      -2.02891850    
   4.33012676       2.50000000      -7.00000000       619.410522      -2.02891850    
   3.93283010       3.01776695      -6.00000000       902.325256      -2.02943063    
   3.93283010       3.01776695      -5.00000000       902.325256      -2.02943063    
   4.33012676       2.50000000      -5.00000000       902.325256      -2.02943063    
   4.33012676       2.50000000      -6.00000000       902.325256      -2.02943063    
   3.93283010       3.01776695      -5.00000000       1316.09351      -2.02817345    
   3.93283010       3.01776695      -4.00000000       1316.09351      -2.02817345    
   4.33012676       2.50000000      -4.00000000       1316.09351      -2.02817345    
   4.33012676       2.50000000      -5.00000000       1316.09351      -2.02817345    
   3.93283010       3.01776695      -4.00000000       1921.22498      -2.02568865    
   3.93283010       3.01776695      -3.00000000       1921.22498      -2.02568865    
   4.33012676       2.50000000      -3.00000000       1921.22498      -2.02568865    
   4.33012676       2.50000000      -4.00000000       1921.22498      -2.02568865    
   3.93283010       3.01776695      -3.00000000       2807.26587      -2.02185798    
   3.93283010       3.01776695      -2.00000000       2807.26587      -2.02185798    
   4.33012676       2.50000000      -2.00000000       2807.26587      -2.02185798    
   4.33012676       2.50000000      -3.00000000       2807.26587      -2.02185798    
   3.93283010       3.01776695      -2.00000000       4103.36523      -2.01730394    
   3.93283010       3.01776695      -1.00000000       4103.36523      -2.01730394    
   4.33012676       2.50000000      -1.00000000       4103.36523      -2.01730394    
   4.33012676       2.50000000      -2.00000000       4103.36523      -2.01730394    
   3.93283010       3.01776695      -1.00000000       6008.24805      -2.00938058    
   3.93283010       3.01776695       0.00000000       6008.24805      -2.00938058    
   4.33012676       2.50000000       0.00000000       6008.24805      -2.00938058    
   4.33012676       2.50000000      -1.00000000       6008.24805      -2.00938058    
   2.50000000       4.33012676      -10.0000000       60.1887817      -2.23134112    
   2.50000000       4.33012676      -9.00000000       60.1887817      -2.23134112    
   3.01776695       3.93283010      -9.00000000       60.1887817      -2.23134112    
   3.01776695       3.93283010      -10.0000000       60.1887817      -2.23134112    
   2.50000000       4.33012676      -9.00000000       56.5109825      -2.33963609    
   2.50000000       4.33012676      -8.00000000       56.5109825      -2.33963609    
   3.01776695       3.93283010      -8.00000000       56.5109825      -2.33963609    
   3.01776695       3.93283010      -9.00000000       56.5109825      -2.33963609    
   2.50000000       4.33012676      -8.00000000       69.8600235      -2.37775779    
   2.50000000       4.33012676      -7.00000000       69.8600235      -2.37775779    
   3.01776695       3.93283010      -7.00000000       69.8600235      -2.37775779    
   3.01776695       3.93283010      -8.00000000       69.8600235      -2.37775779    
   2.50000000       4.33012676      -7.00000000       95.9671555      -2.37718463    
   2.50000000       4.33012676      -6.00000000       95.9671555      -2.37718463    
   3.01776695       3.93283010      -6.00000000       95.9671555      -2.37718463    
   3.01776695       3.93283010      -7.00000000       95.9671555      -2.37718463    
   2.50000000       4.33012676      -6.00000000       137.520813      -2.36352468    
   2.50000000       4.33012676      -5.00000000       137.520813      -2.36352468    
   3.01776695       3.93283010      -5.00000000       137.520813      -2.36352468    
   3.01776695       3.93283010      -6.00000000       137.520813      -2.36352468    
   2.50000000       4.33012676      -5.00000000       200.880325      -2.34452415    
   2.50000000       4.33012676      -4.00000000       200.880325      -2.34452415    
   3.01776695       3.93283010      -4.00000000       200.880325      -2.34452415    
   3.01776695       3.93283010      -5.00000000       200.880325      -2.34452415    
   2.50000000       4.33012676      -4.00000000       296.801178      -2.32054663    
   2.50000000       4.33012676      -3.00000000       296.801178      -2.32054663    
   3.01776695       3.93283010      -3.00000000       296.801178      -2.32054663    
   3.01776695       3.93283010      -4.00000000       296.801178      -2.32054663    
   2.50000000       4.33012676      -3.00000000       443.026917      -2.28950739    
   2.50000000       4.33012676      -2.00000000       443.026917      -2.28950739    
   3.01776695       3.93283010      -2.00000000       443.026917      -2.28950739    
   3.01776695       3.93283010      -3.00000000       443.026917      -2.28950739    
   2.50000000       4.33012676      -2.00000000       665.243225      -2.25546455    
   2.50000000       4.33012676      -1.00000000       665.243225      -2.25546455    
   3.01776695       3.93283010      -1.00000000       665.243225      -2.25546455    
   3.01776695       3.93283010      -2.00000000       665.243225      -2.25546455    
   2.50000000       4.33012676      -1.00000000       1023.26593      -2.19937730    
   2.50000000       4.33012676       0.00000000       1023.26593      -2.19937730    
   3.01776695       3.93283010       0.00000000       1023.26593      -2.19937730    
   3.01776695       3.93283010      -1.00000000       1023.26593      -2.19937730    
   3.01776695       3.93283010      -10.0000000       104.560196      -2.10523367    
   3.01776695       3.93283010      -9.00000000       104.560196      -2.10523367    
   3.53553391       3.53553391      -9.00000000       104.560196      -2.10523367    
   3.53553391       3.53553391      -10.0000000       104.560196      -2.10523367    
   3.01776695       3.93283010      -9.00000000       127.337509      -2.17353463    
   3.01776695       3.93283010      -8.00000000       127.337509      -2.17353463    
   3.53553391       3.53553391      -8.00000000       127.337509      -2.17353463    
   3.53553391       3.53553391      -9.00000000       127.337509      -2.17353463    
   3.01776695       3.93283010      -8.00000000       175.391434      -2.19323874    
   3.01776695       3.93283010      -7.00000000       175.391434      -2.19323874    
   3.53553391       3.53553391      -7.00000000       175.391434      -2.19323874    
   3.53553391       3.53553391      -8.00000000       175.391434      -2.19323874    
   3.01776695       3.93283010      -7.00000000       250.952896      -2.19546151    
   3.01776695       3.93283010      -6.00000000       250.952896      -2.19546151    
   3.53553391       3.53553391      -6.00000000       250.952896      -2.19546151    
   3.53553391       3.53553391      -7.00000000       250.952896      -2.19546151    
   3.01776695       3.93283010      -6.00000000       364.139832      -2.19211316    
   3.01776695       3.93283010      -5.00000000       364.139832      -2.19211316    
   3.53553391       3.53553391      -5.00000000       364.139832      -2.19211316    
   3.53553391       3.53553391      -6.00000000       364.139832      -2.19211316    
   3.01776695       3.93283010      -5.00000000       531.600037      -2.18637037    
   3.01776695       3.93283010      -4.00000000       531.600037      -2.18637037    
   3.53553391       3.53553391      -4.00000000       531.600037      -2.18637037    
   3.53553391       3.53553391      -5.00000000       531.600037      -2.18637037    
   3.01776695       3.93283010      -4.00000000       778.890503      -2.17839932    
   3.01776695       3.93283010      -3.00000000       778.890503      -2.17839932    
   3.53553391       3.53553391      -3.00000000       778.890503      -2.17839932    
   3.53553391       3.53553391      -4.00000000       778.890503      -2.17839932    
   3.01776695       3.93283010      -3.00000000       1145.33801      -2.16758204    
   3.01776695       3.93283010      -2.00000000       1145.33801      -2.16758204    
   3.53553391       3.53553391      -2.00000000       1145.33801      -2.16758204    
   3.53553391       3.53553391      -3.00000000       1145.33801      -2.16758204    
   3.01776695       3.93283010      -2.00000000       1687.40796      -2.15513015    
   3.01776695       3.93283010      -1.00000000       1687.40796      -2.15513015    
   3.53553391       3.53553391      -1.00000000       1687.40796      -2.15513015    
   3.53553391       3.53553391      -2.00000000       1687.40796      -2.15513015    
   3.01776695       3.93283010      -1.00000000       2507.06812      -2.13366699    
   3.01776695       3.93283010       0.00000000       2507.06812      -2.13366699    
   3.53553391       3.53553391       0.00000000       2507.06812      -2.13366699    
   3.53553391       3.53553391      -1.00000000       2507.06812      -2.13366699    
   1.29409504       4.82962894      -10.0000000       7.77433872      0.345608115    
   1.29409504       4.82962894      -9.00000000       7.77433872      0.345608115    
   1.89704800       4.57987785      -9.00000000       7.77433872      0.345608115    
   1.89704800       4.57987785      -10.0000000       7.77433872      0.345608115    
   1.29409504       4.82962894      -9.00000000       52.0923347      0.561886907    
   1.29409504       4.82962894      -8.00000000       52.0923347      0.561886907    
   1.89704800       4.57987785      -8.00000000       52.0923347      0.561886907    
   1.89704800       4.57987785      -9.00000000       52.0923347      0.561886907    
   1.29409504       4.82962894      -8.00000000       92.3628387      0.553988338    
   1.29409504       4.82962894      -7.00000000       92.3628387      0.553988338    
   1.89704800       4.57987785      -7.00000000       92.3628387      0.553988338    
   1.89704800       4.57987785      -8.00000000       92.3628387      0.553988338    
   1.29409504       4.82962894      -7.00000000       142.492691      0.536501884    
   1.29409504       4.82962894      -6.00000000       142.492691      0.536501884    
   1.89704800       4.57987785      -6.00000000       142.492691      0.536501884    
   1.89704800       4.57987785      -7.00000000       142.492691      0.536501884    
   1.29409504       4.82962894      -6.00000000       211.315506      0.519385934    
   1.29409504       4.82962894      -5.00000000       211.315506      0.519385934    
   1.89704800       4.57987785      -5.00000000       211.315506      0.519385934    
   1.89704800       4.57987785      -6.00000000       211.315506      0.519385934    
   1.29409504       4.82962894      -5.00000000       308.553589      0.502359450    
   1.29409504       4.82962894      -4.00000000       308.553589      0.502359450    
   1.89704800       4.57987785      -4.00000000       308.553589      0.502359450    
   1.89704800       4.57987785      -5.00000000       308.553589      0.502359450    
   1.29409504       4.82962894      -4.00000000       446.879608      0.483094633    
   1.29409504       4.82962894      -3.00000000       446.879608      0.483094633    
   1.89704800       4.57987785      -3.00000000       446.879608      0.483094633    