 VARIABLES="X" "Y" "Z" "abs(p) (Pa)" "angle(p) (rad)"
ZONE N=   1080,E =     600, F=FEPOINT, ET=QUADRILATERAL
   4.82962894       1.29409504      -10.0000000       510.895172      -1.11076522    
   4.82962894       1.29409504      -9.00000000       510.895172      -1.11076522    
   4.91481400      0.647047520      -9.00000000       510.895172      -1.11076522    
   4.91481400      0.647047520      -10.0000000       510.895172      -1.11076522    
   4.82962894       1.29409504      -9.00000000       666.402771      -1.10082579    
   4.82962894       1.29409504      -8.00000000       666.402771      -1.10082579    
   4.91481400      0.647047520      -8.00000000       666.402771      -1.10082579    
   4.91481400      0.647047520      -9.00000000       666.402771      -1.10082579    
   4.82962894       1.29409504      -8.00000000       766.536499      -1.05185580    
   4.82962894       1.29409504      -7.00000000       766.536499      -1.05185580    
   4.91481400      0.647047520      -7.00000000       766.536499      -1.05185580    
   4.91481400      0.647047520      -8.00000000       766.536499      -1.05185580    
   4.82962894       1.29409504      -7.00000000       852.707214     -0.986225486    
   4.82962894       1.29409504      -6.00000000       852.707214     -0.986225486    
   4.91481400      0.647047520      -6.00000000       852.707214     -0.986225486    
   4.91481400      0.647047520      -7.00000000       852.707214     -0.986225486    
   4.82962894       1.29409504      -6.00000000       942.136536     -0.911019027    
   4.82962894       1.29409504      -5.00000000       942.136536     -0.911019027    
   4.91481400      0.647047520      -5.00000000       942.136536     -0.911019027    
   4.91481400      0.647047520      -6.00000000       942.136536     -0.911019027    
   4.82962894       1.29409504      -5.00000000       1047.69861     -0.832060874    
   4.82962894       1.29409504      -4.00000000       1047.69861     -0.832060874    
   4.91481400      0.647047520      -4.00000000       1047.69861     -0.832060874    
   4.91481400      0.647047520      -5.00000000       1047.69861     -0.832060874    
   4.82962894       1.29409504      -4.00000000       1181.04980     -0.755686581    
   4.82962894       1.29409504      -3.00000000       1181.04980     -0.755686581    
   4.91481400      0.647047520      -3.00000000       1181.04980     -0.755686581    
   4.91481400      0.647047520      -4.00000000       1181.04980     -0.755686581    
   4.82962894       1.29409504      -3.00000000       1353.60071     -0.688248336    
   4.82962894       1.29409504      -2.00000000       1353.60071     -0.688248336    
   4.91481400      0.647047520      -2.00000000       1353.60071     -0.688248336    
   4.91481400      0.647047520      -3.00000000       1353.60071     -0.688248336    
   4.82962894       1.29409504      -2.00000000       1578.46277     -0.635771334    
   4.82962894       1.29409504      -1.00000000       1578.46277     -0.635771334    
   4.91481400      0.647047520      -1.00000000       1578.46277     -0.635771334    
   4.91481400      0.647047520      -2.00000000       1578.46277     -0.635771334    
   4.82962894       1.29409504      -1.00000000       1873.48877     -0.604642689    
   4.82962894       1.29409504       0.00000000       1873.48877     -0.604642689    
   4.91481400      0.647047520       0.00000000       1873.48877     -0.604642689    
   4.91481400      0.647047520      -1.00000000       1873.48877     -0.604642689    
   4.91481400      0.647047520      -10.0000000       206.326340      -1.17132092    
   4.91481400      0.647047520      -9.00000000       206.326340      -1.17132092    
   5.00000000       0.00000000      -9.00000000       206.326340      -1.17132092    
   5.00000000       0.00000000      -10.0000000       206.326340      -1.17132092    
   4.91481400      0.647047520      -9.00000000       262.895355      -1.15083802    
   4.91481400      0.647047520      -8.00000000       262.895355      -1.15083802    
   5.00000000       0.00000000      -8.00000000       262.895355      -1.15083802    
   5.00000000       0.00000000      -9.00000000       262.895355      -1.15083802    
   4.91481400      0.647047520      -8.00000000       297.937988      -1.10029244    
   4.91481400      0.647047520      -7.00000000       297.937988      -1.10029244    
   5.00000000       0.00000000      -7.00000000       297.937988      -1.10029244    
   5.00000000       0.00000000      -8.00000000       297.937988      -1.10029244    
   4.91481400      0.647047520      -7.00000000       327.688477      -1.03531623    
   4.91481400      0.647047520      -6.00000000       327.688477      -1.03531623    
   5.00000000       0.00000000      -6.00000000       327.688477      -1.03531623    
   5.00000000       0.00000000      -7.00000000       327.688477      -1.03531623    
   4.91481400      0.647047520      -6.00000000       358.265930     -0.960920751    
   4.91481400      0.647047520      -5.00000000       358.265930     -0.960920751    
   5.00000000       0.00000000      -5.00000000       358.265930     -0.960920751    
   5.00000000       0.00000000      -6.00000000       358.265930     -0.960920751    
   4.91481400      0.647047520      -5.00000000       394.395172     -0.881943285    
   4.91481400      0.647047520      -4.00000000       394.395172     -0.881943285    
   5.00000000       0.00000000      -4.00000000       394.395172     -0.881943285    
   5.00000000       0.00000000      -5.00000000       394.395172     -0.881943285    
   4.91481400      0.647047520      -4.00000000       440.307526     -0.804051638    
   4.91481400      0.647047520      -3.00000000       440.307526     -0.804051638    
   5.00000000       0.00000000      -3.00000000       440.307526     -0.804051638    
   5.00000000       0.00000000      -4.00000000       440.307526     -0.804051638    
   4.91481400      0.647047520      -3.00000000       500.167175     -0.733510673    
   4.91481400      0.647047520      -2.00000000       500.167175     -0.733510673    
   5.00000000       0.00000000      -2.00000000       500.167175     -0.733510673    
   5.00000000       0.00000000      -3.00000000       500.167175     -0.733510673    
   4.91481400      0.647047520      -2.00000000       578.886292     -0.676627934    
   4.91481400      0.647047520      -1.00000000       578.886292     -0.676627934    
   5.00000000       0.00000000      -1.00000000       578.886292     -0.676627934    
   5.00000000       0.00000000      -2.00000000       578.886292     -0.676627934    
   4.91481400      0.647047520      -1.00000000       682.583374     -0.640094697    
   4.91481400      0.647047520       0.00000000       682.583374     -0.640094697    
   5.00000000       0.00000000       0.00000000       682.583374     -0.640094697    
   5.00000000       0.00000000      -1.00000000       682.583374     -0.640094697    
   4.33012676       2.50000000      -10.0000000       1192.98730      -1.12123215    
   4.33012676       2.50000000      -9.00000000       1192.98730      -1.12123215    
   4.57987785       1.89704800      -9.00000000       1192.98730      -1.12123215    
   4.57987785       1.89704800      -10.0000000       1192.98730      -1.12123215    
   4.33012676       2.50000000      -9.00000000       1550.01587      -1.10930395    
   4.33012676       2.50000000      -8.00000000       1550.01587      -1.10930395    
   4.57987785       1.89704800      -8.00000000       1550.01587      -1.10930395    
   4.57987785       1.89704800      -9.00000000       1550.01587      -1.10930395    
   4.33012676       2.50000000      -8.00000000       1778.48047      -1.05996907    
   4.33012676       2.50000000      -7.00000000       1778.48047      -1.05996907    
   4.57987785       1.89704800      -7.00000000       1778.48047      -1.05996907    
   4.57987785       1.89704800      -8.00000000       1778.48047      -1.05996907    
   4.33012676       2.50000000      -7.00000000       1974.66357     -0.994368255    
   4.33012676       2.50000000      -6.00000000       1974.66357     -0.994368255    
   4.57987785       1.89704800      -6.00000000       1974.66357     -0.994368255    
   4.57987785       1.89704800      -7.00000000       1974.66357     -0.994368255    
   4.33012676       2.50000000      -6.00000000       2177.96289     -0.919224143    
   4.33012676       2.50000000      -5.00000000       2177.96289     -0.919224143    
   4.57987785       1.89704800      -5.00000000       2177.96289     -0.919224143    
   4.57987785       1.89704800      -6.00000000       2177.96289     -0.919224143    
   4.33012676       2.50000000      -5.00000000       2417.97827     -0.840195239    
   4.33012676       2.50000000      -4.00000000       2417.97827     -0.840195239    
   4.57987785       1.89704800      -4.00000000       2417.97827     -0.840195239    
   4.57987785       1.89704800      -5.00000000       2417.97827     -0.840195239    
   4.33012676       2.50000000      -4.00000000       2721.48706     -0.763508976    
   4.33012676       2.50000000      -3.00000000       2721.48706     -0.763508976    
   4.57987785       1.89704800      -3.00000000       2721.48706     -0.763508976    
   4.57987785       1.89704800      -4.00000000       2721.48706     -0.763508976    
   4.33012676       2.50000000      -3.00000000       3114.69409     -0.695513725    
   4.33012676       2.50000000      -2.00000000       3114.69409     -0.695513725    
   4.57987785       1.89704800      -2.00000000       3114.69409     -0.695513725    
   4.57987785       1.89704800      -3.00000000       3114.69409     -0.695513725    
   4.33012676       2.50000000      -2.00000000       3627.83423     -0.642290771    
   4.33012676       2.50000000      -1.00000000       3627.83423     -0.642290771    
   4.57987785       1.89704800      -1.00000000       3627.83423     -0.642290771    
   4.57987785       1.89704800      -2.00000000       3627.83423     -0.642290771    
   4.33012676       2.50000000      -1.00000000       4301.52441     -0.610267282    
   4.33012676       2.50000000       0.00000000       4301.52441     -0.610267282    
   4.57987785       1.89704800       0.00000000       4301.52441     -0.610267282    
   4.57987785       1.89704800      -1.00000000       4301.52441     -0.610267282    
   4.57987785       1.89704800      -10.0000000       909.076050      -1.13730192    
   4.57987785       1.89704800      -9.00000000       909.076050      -1.13730192    
   4.82962894       1.29409504      -9.00000000       909.076050      -1.13730192    
   4.82962894       1.29409504      -10.0000000       909.076050      -1.13730192    
   4.57987785       1.89704800      -9.00000000       1173.91687      -1.12245476    
   4.57987785       1.89704800      -8.00000000       1173.91687      -1.12245476    
   4.82962894       1.29409504      -8.00000000       1173.91687      -1.12245476    
   4.82962894       1.29409504      -9.00000000       1173.91687      -1.12245476    
   4.57987785       1.89704800      -8.00000000       1341.72119      -1.07262862    
   4.57987785       1.89704800      -7.00000000       1341.72119      -1.07262862    
   4.82962894       1.29409504      -7.00000000       1341.72119      -1.07262862    
   4.82962894       1.29409504      -8.00000000       1341.72119      -1.07262862    
   4.57987785       1.89704800      -7.00000000       1485.31519      -1.00714171    
   4.57987785       1.89704800      -6.00000000       1485.31519      -1.00714171    
   4.82962894       1.29409504      -6.00000000       1485.31519      -1.00714171    
   4.82962894       1.29409504      -7.00000000       1485.31519      -1.00714171    
   4.57987785       1.89704800      -6.00000000       1633.75720     -0.932151318    
   4.57987785       1.89704800      -5.00000000       1633.75720     -0.932151318    
   4.82962894       1.29409504      -5.00000000       1633.75720     -0.932151318    
   4.82962894       1.29409504      -6.00000000       1633.75720     -0.932151318    
   4.57987785       1.89704800      -5.00000000       1809.05969     -0.853062689    
   4.57987785       1.89704800      -4.00000000       1809.05969     -0.853062689    
   4.82962894       1.29409504      -4.00000000       1809.05969     -0.853062689    
   4.82962894       1.29409504      -5.00000000       1809.05969     -0.853062689    
   4.57987785       1.89704800      -4.00000000       2031.07947     -0.775934756    
   4.57987785       1.89704800      -3.00000000       2031.07947     -0.775934756    
   4.82962894       1.29409504      -3.00000000       2031.07947     -0.775934756    
   4.82962894       1.29409504      -4.00000000       2031.07947     -0.775934756    
   4.57987785       1.89704800      -3.00000000       2319.27368     -0.707099795    
   4.57987785       1.89704800      -2.00000000       2319.27368     -0.707099795    
   4.82962894       1.29409504      -2.00000000       2319.27368     -0.707099795    
   4.82962894       1.29409504      -3.00000000       2319.27368     -0.707099795    
   4.57987785       1.89704800      -2.00000000       2696.23706     -0.652715564    
   4.57987785       1.89704800      -1.00000000       2696.23706     -0.652715564    
   4.82962894       1.29409504      -1.00000000       2696.23706     -0.652715564    
   4.82962894       1.29409504      -2.00000000       2696.23706     -0.652715564    
   4.57987785       1.89704800      -1.00000000       3191.64819     -0.619287550    
   4.57987785       1.89704800       0.00000000       3191.64819     -0.619287550    
   4.82962894       1.29409504       0.00000000       3191.64819     -0.619287550    
   4.82962894       1.29409504      -1.00000000       3191.64819     -0.619287550    
   3.53553391       3.53553391      -10.0000000       1793.81555      -1.12421274    
   3.53553391       3.53553391      -9.00000000       1793.81555      -1.12421274    
   3.93283010       3.01776695      -9.00000000       1793.81555      -1.12421274    
   3.93283010       3.01776695      -10.0000000       1793.81555      -1.12421274    
   3.53553391       3.53553391      -9.00000000       2328.02881      -1.11173189    
   3.53553391       3.53553391      -8.00000000       2328.02881      -1.11173189    
   3.93283010       3.01776695      -8.00000000       2328.02881      -1.11173189    
   3.93283010       3.01776695      -9.00000000       2328.02881      -1.11173189    
   3.53553391       3.53553391      -8.00000000       2669.25903      -1.06229746    
   3.53553391       3.53553391      -7.00000000       2669.25903      -1.06229746    
   3.93283010       3.01776695      -7.00000000       2669.25903      -1.06229746    
   3.93283010       3.01776695      -8.00000000       2669.25903      -1.06229746    
   3.53553391       3.53553391      -7.00000000       2962.08496     -0.996712327    
   3.53553391       3.53553391      -6.00000000       2962.08496     -0.996712327    
   3.93283010       3.01776695      -6.00000000       2962.08496     -0.996712327    
   3.93283010       3.01776695      -7.00000000       2962.08496     -0.996712327    
   3.53553391       3.53553391      -6.00000000       3265.40161     -0.921591699    
   3.53553391       3.53553391      -5.00000000       3265.40161     -0.921591699    
   3.93283010       3.01776695      -5.00000000       3265.40161     -0.921591699    
   3.93283010       3.01776695      -6.00000000       3265.40161     -0.921591699    
   3.53553391       3.53553391      -5.00000000       3623.52588     -0.842545807    
   3.53553391       3.53553391      -4.00000000       3623.52588     -0.842545807    
   3.93283010       3.01776695      -4.00000000       3623.52588     -0.842545807    
   3.93283010       3.01776695      -5.00000000       3623.52588     -0.842545807    
   3.53553391       3.53553391      -4.00000000       4076.50635     -0.765774667    
   3.53553391       3.53553391      -3.00000000       4076.50635     -0.765774667    
   3.93283010       3.01776695      -3.00000000       4076.50635     -0.765774667    
   3.93283010       3.01776695      -4.00000000       4076.50635     -0.765774667    
   3.53553391       3.53553391      -3.00000000       4663.57080     -0.697622359    
   3.53553391       3.53553391      -2.00000000       4663.57080     -0.697622359    
   3.93283010       3.01776695      -2.00000000       4663.57080     -0.697622359    
   3.93283010       3.01776695      -3.00000000       4663.57080     -0.697622359    
   3.53553391       3.53553391      -2.00000000       5430.02051     -0.644185603    
   3.53553391       3.53553391      -1.00000000       5430.02051     -0.644185603    
   3.93283010       3.01776695      -1.00000000       5430.02051     -0.644185603    
   3.93283010       3.01776695      -2.00000000       5430.02051     -0.644185603    
   3.53553391       3.53553391      -1.00000000       6436.45605     -0.611904025    
   3.53553391       3.53553391       0.00000000       6436.45605     -0.611904025    
   3.93283010       3.01776695       0.00000000       6436.45605     -0.611904025    
   3.93283010       3.01776695      -1.00000000       6436.45605     -0.611904025    
   3.93283010       3.01776695      -10.0000000       1550.01038      -1.13277543    
   3.93283010       3.01776695      -9.00000000       1550.01038      -1.13277543    
   4.33012676       2.50000000      -9.00000000       1550.01038      -1.13277543    
   4.33012676       2.50000000      -10.0000000       1550.01038      -1.13277543    
   3.93283010       3.01776695      -9.00000000       2005.06116      -1.11873460    
   3.93283010       3.01776695      -8.00000000       2005.06116      -1.11873460    
   4.33012676       2.50000000      -8.00000000       2005.06116      -1.11873460    
   4.33012676       2.50000000      -9.00000000       2005.06116      -1.11873460    
   3.93283010       3.01776695      -8.00000000       2294.19971      -1.06903648    
   3.93283010       3.01776695      -7.00000000       2294.19971      -1.06903648    
   4.33012676       2.50000000      -7.00000000       2294.19971      -1.06903648    
   4.33012676       2.50000000      -8.00000000       2294.19971      -1.06903648    
   3.93283010       3.01776695      -7.00000000       2541.86694      -1.00350904    
   3.93283010       3.01776695      -6.00000000       2541.86694      -1.00350904    
   4.33012676       2.50000000      -6.00000000       2541.86694      -1.00350904    
   4.33012676       2.50000000      -7.00000000       2541.86694      -1.00350904    
   3.93283010       3.01776695      -6.00000000       2798.07764     -0.928468227    
   3.93283010       3.01776695      -5.00000000       2798.07764     -0.928468227    
   4.33012676       2.50000000      -5.00000000       2798.07764     -0.928468227    
   4.33012676       2.50000000      -6.00000000       2798.07764     -0.928468227    
   3.93283010       3.01776695      -5.00000000       3100.62817     -0.849389672    
   3.93283010       3.01776695      -4.00000000       3100.62817     -0.849389672    
   4.33012676       2.50000000      -4.00000000       3100.62817     -0.849389672    
   4.33012676       2.50000000      -5.00000000       3100.62817     -0.849389672    
   3.93283010       3.01776695      -4.00000000       3483.63281     -0.772381663    
   3.93283010       3.01776695      -3.00000000       3483.63281     -0.772381663    
   4.33012676       2.50000000      -3.00000000       3483.63281     -0.772381663    
   4.33012676       2.50000000      -4.00000000       3483.63281     -0.772381663    
   3.93283010       3.01776695      -3.00000000       3980.51978     -0.703781068    
   3.93283010       3.01776695      -2.00000000       3980.51978     -0.703781068    
   4.33012676       2.50000000      -2.00000000       3980.51978     -0.703781068    
   4.33012676       2.50000000      -3.00000000       3980.51978     -0.703781068    
   3.93283010       3.01776695      -2.00000000       4630.03174     -0.649726927    
   3.93283010       3.01776695      -1.00000000       4630.03174     -0.649726927    
   4.33012676       2.50000000      -1.00000000       4630.03174     -0.649726927    
   4.33012676       2.50000000      -2.00000000       4630.03174     -0.649726927    
   3.93283010       3.01776695      -1.00000000       5483.38086     -0.616696656    
   3.93283010       3.01776695       0.00000000       5483.38086     -0.616696656    
   4.33012676       2.50000000       0.00000000       5483.38086     -0.616696656    
   4.33012676       2.50000000      -1.00000000       5483.38086     -0.616696656    
   2.50000000       4.33012676      -10.0000000       2272.40698      -1.12577772    
   2.50000000       4.33012676      -9.00000000       2272.40698      -1.12577772    
   3.01776695       3.93283010      -9.00000000       2272.40698      -1.12577772    
   3.01776695       3.93283010      -10.0000000       2272.40698      -1.12577772    
   2.50000000       4.33012676      -9.00000000       2947.39648      -1.11300766    
   2.50000000       4.33012676      -8.00000000       2947.39648      -1.11300766    
   3.01776695       3.93283010      -8.00000000       2947.39648      -1.11300766    
   3.01776695       3.93283010      -9.00000000       2947.39648      -1.11300766    
   2.50000000       4.33012676      -8.00000000       3378.13892      -1.06352425    
   2.50000000       4.33012676      -7.00000000       3378.13892      -1.06352425    
   3.01776695       3.93283010      -7.00000000       3378.13892      -1.06352425    
   3.01776695       3.93283010      -8.00000000       3378.13892      -1.06352425    
   2.50000000       4.33012676      -7.00000000       3747.65698     -0.997948050    
   2.50000000       4.33012676      -6.00000000       3747.65698     -0.997948050    
   3.01776695       3.93283010      -6.00000000       3747.65698     -0.997948050    
   3.01776695       3.93283010      -7.00000000       3747.65698     -0.997948050    
   2.50000000       4.33012676      -6.00000000       4130.32324     -0.922840118    
   2.50000000       4.33012676      -5.00000000       4130.32324     -0.922840118    
   3.01776695       3.93283010      -5.00000000       4130.32324     -0.922840118    
   3.01776695       3.93283010      -6.00000000       4130.32324     -0.922840118    
   2.50000000       4.33012676      -5.00000000       4582.14502     -0.843787014    
   2.50000000       4.33012676      -4.00000000       4582.14502     -0.843787014    
   3.01776695       3.93283010      -4.00000000       4582.14502     -0.843787014    
   3.01776695       3.93283010      -5.00000000       4582.14502     -0.843787014    
   2.50000000       4.33012676      -4.00000000       5153.73193     -0.766971469    
   2.50000000       4.33012676      -3.00000000       5153.73193     -0.766971469    
   3.01776695       3.93283010      -3.00000000       5153.73193     -0.766971469    
   3.01776695       3.93283010      -4.00000000       5153.73193     -0.766971469    
   2.50000000       4.33012676      -3.00000000       5894.64746     -0.698736727    
   2.50000000       4.33012676      -2.00000000       5894.64746     -0.698736727    
   3.01776695       3.93283010      -2.00000000       5894.64746     -0.698736727    
   3.01776695       3.93283010      -3.00000000       5894.64746     -0.698736727    
   2.50000000       4.33012676      -2.00000000       6862.16943     -0.645187259    
   2.50000000       4.33012676      -1.00000000       6862.16943     -0.645187259    
   3.01776695       3.93283010      -1.00000000       6862.16943     -0.645187259    
   3.01776695       3.93283010      -2.00000000       6862.16943     -0.645187259    
   2.50000000       4.33012676      -1.00000000       8132.76514     -0.612769723    
   2.50000000       4.33012676       0.00000000       8132.76514     -0.612769723    
   3.01776695       3.93283010       0.00000000       8132.76514     -0.612769723    
   3.01776695       3.93283010      -1.00000000       8132.76514     -0.612769723    
   3.01776695       3.93283010      -10.0000000       2085.32837      -1.13080227    
   3.01776695       3.93283010      -9.00000000       2085.32837      -1.13080227    
   3.53553391       3.53553391      -9.00000000       2085.32837      -1.13080227    
   3.53553391       3.53553391      -10.0000000       2085.32837      -1.13080227    
   3.01776695       3.93283010      -9.00000000       2699.57324      -1.11711574    
   3.01776695       3.93283010      -8.00000000       2699.57324      -1.11711574    
   3.53553391       3.53553391      -8.00000000       2699.57324      -1.11711574    
   3.53553391       3.53553391      -9.00000000       2699.57324      -1.11711574    
   3.01776695       3.93283010      -8.00000000       3090.34253      -1.06747663    
   3.01776695       3.93283010      -7.00000000       3090.34253      -1.06747663    
   3.53553391       3.53553391      -7.00000000       3090.34253      -1.06747663    
   3.53553391       3.53553391      -8.00000000       3090.34253      -1.06747663    
   3.01776695       3.93283010      -7.00000000       3425.20923      -1.00193417    
   3.01776695       3.93283010      -6.00000000       3425.20923      -1.00193417    
   3.53553391       3.53553391      -6.00000000       3425.20923      -1.00193417    
   3.53553391       3.53553391      -7.00000000       3425.20923      -1.00193417    
   3.01776695       3.93283010      -6.00000000       3771.72998     -0.926873446    
   3.01776695       3.93283010      -5.00000000       3771.72998     -0.926873446    
   3.53553391       3.53553391      -5.00000000       3771.72998     -0.926873446    
   3.53553391       3.53553391      -6.00000000       3771.72998     -0.926873446    
   3.01776695       3.93283010      -5.00000000       4180.90723     -0.847800672    
   3.01776695       3.93283010      -4.00000000       4180.90723     -0.847800672    
   3.53553391       3.53553391      -4.00000000       4180.90723     -0.847800672    
   3.53553391       3.53553391      -5.00000000       4180.90723     -0.847800672    
   3.01776695       3.93283010      -4.00000000       4698.79980     -0.770845771    
   3.01776695       3.93283010      -3.00000000       4698.79980     -0.770845771    
   3.53553391       3.53553391      -3.00000000       4698.79980     -0.770845771    
   3.53553391       3.53553391      -4.00000000       4698.79980     -0.770845771    
   3.01776695       3.93283010      -3.00000000       5370.52051     -0.702347934    
   3.01776695       3.93283010      -2.00000000       5370.52051     -0.702347934    
   3.53553391       3.53553391      -2.00000000       5370.52051     -0.702347934    
   3.53553391       3.53553391      -3.00000000       5370.52051     -0.702347934    
   3.01776695       3.93283010      -2.00000000       6248.31543     -0.648436069    
   3.01776695       3.93283010      -1.00000000       6248.31543     -0.648436069    
   3.53553391       3.53553391      -1.00000000       6248.31543     -0.648436069    
   3.53553391       3.53553391      -2.00000000       6248.31543     -0.648436069    
   3.01776695       3.93283010      -1.00000000       7401.44043     -0.615579784    
   3.01776695       3.93283010       0.00000000       7401.44043     -0.615579784    
   3.53553391       3.53553391       0.00000000       7401.44043     -0.615579784    
   3.53553391       3.53553391      -1.00000000       7401.44043     -0.615579784    
   1.29409504       4.82962894      -10.0000000       2596.14062      -1.12685907    
   1.29409504       4.82962894      -9.00000000       2596.14062      -1.12685907    
   1.89704800       4.57987785      -9.00000000       2596.14062      -1.12685907    
   1.89704800       4.57987785      -10.0000000       2596.14062      -1.12685907    
   1.29409504       4.82962894      -9.00000000       3365.90894      -1.11389077    
   1.29409504       4.82962894      -8.00000000       3365.90894      -1.11389077    
   1.89704800       4.57987785      -8.00000000       3365.90894      -1.11389077    
   1.89704800       4.57987785      -9.00000000       3365.90894      -1.11389077    
   1.29409504       4.82962894      -8.00000000       3856.80640      -1.06437290    
   1.29409504       4.82962894      -7.00000000       3856.80640      -1.06437290    
   1.89704800       4.57987785      -7.00000000       3856.80640      -1.06437290    
   1.89704800       4.57987785      -8.00000000       3856.80640      -1.06437290    
   1.29409504       4.82962894      -7.00000000       4277.83398     -0.998803020    
   1.29409504       4.82962894      -6.00000000       4277.83398     -0.998803020    
   1.89704800       4.57987785      -6.00000000       4277.83398     -0.998803020    
   1.89704800       4.57987785      -7.00000000       4277.83398     -0.998803020    
   1.29409504       4.82962894      -6.00000000       4713.77246     -0.923704863    
   1.29409504       4.82962894      -5.00000000       4713.77246     -0.923704863    
   1.89704800       4.57987785      -5.00000000       4713.77246     -0.923704863    
   1.89704800       4.57987785      -6.00000000       4713.77246     -0.923704863    
   1.29409504       4.82962894      -5.00000000       5228.50049     -0.844647348    
   1.29409504       4.82962894      -4.00000000       5228.50049     -0.844647348    
   1.89704800       4.57987785      -4.00000000       5228.50049     -0.844647348    
   1.89704800       4.57987785      -5.00000000       5228.50049     -0.844647348    
   1.29409504       4.82962894      -4.00000000       5879.73926     -0.767801106    
   1.29409504       4.82962894      -3.00000000       5879.73926     -0.767801106    
   1.89704800       4.57987785      -3.00000000       5879.73926     -0.767801106    