 VARIABLES="X" "Y" "Z" "abs(p) (Pa)" "angle(p) (rad)"
ZONE N=   1080,E =     600, F=FEPOINT, ET=QUADRILATERAL
   4.82962894       1.29409504      -10.0000000       506.430817      -1.32771242    
   4.82962894       1.29409504      -9.00000000       506.430817      -1.32771242    
   4.91481400      0.647047520      -9.00000000       506.430817      -1.32771242    
   4.91481400      0.647047520      -10.0000000       506.430817      -1.32771242    
   4.82962894       1.29409504      -9.00000000       644.420349      -1.29311657    
   4.82962894       1.29409504      -8.00000000       644.420349      -1.29311657    
   4.91481400      0.647047520      -8.00000000       644.420349      -1.29311657    
   4.91481400      0.647047520      -9.00000000       644.420349      -1.29311657    
   4.82962894       1.29409504      -8.00000000       705.796326      -1.22222722    
   4.82962894       1.29409504      -7.00000000       705.796326      -1.22222722    
   4.91481400      0.647047520      -7.00000000       705.796326      -1.22222722    
   4.91481400      0.647047520      -8.00000000       705.796326      -1.22222722    
   4.82962894       1.29409504      -7.00000000       739.388733      -1.11857092    
   4.82962894       1.29409504      -6.00000000       739.388733      -1.11857092    
   4.91481400      0.647047520      -6.00000000       739.388733      -1.11857092    
   4.91481400      0.647047520      -7.00000000       739.388733      -1.11857092    
   4.82962894       1.29409504      -6.00000000       770.264709     -0.978708625    
   4.82962894       1.29409504      -5.00000000       770.264709     -0.978708625    
   4.91481400      0.647047520      -5.00000000       770.264709     -0.978708625    
   4.91481400      0.647047520      -6.00000000       770.264709     -0.978708625    
   4.82962894       1.29409504      -5.00000000       823.252563     -0.806054831    
   4.82962894       1.29409504      -4.00000000       823.252563     -0.806054831    
   4.91481400      0.647047520      -4.00000000       823.252563     -0.806054831    
   4.91481400      0.647047520      -5.00000000       823.252563     -0.806054831    
   4.82962894       1.29409504      -4.00000000       925.703552     -0.618997157    
   4.82962894       1.29409504      -3.00000000       925.703552     -0.618997157    
   4.91481400      0.647047520      -3.00000000       925.703552     -0.618997157    
   4.91481400      0.647047520      -4.00000000       925.703552     -0.618997157    
   4.82962894       1.29409504      -3.00000000       1105.19531     -0.447934508    
   4.82962894       1.29409504      -2.00000000       1105.19531     -0.447934508    
   4.91481400      0.647047520      -2.00000000       1105.19531     -0.447934508    
   4.91481400      0.647047520      -3.00000000       1105.19531     -0.447934508    
   4.82962894       1.29409504      -2.00000000       1385.71704     -0.320026577    
   4.82962894       1.29409504      -1.00000000       1385.71704     -0.320026577    
   4.91481400      0.647047520      -1.00000000       1385.71704     -0.320026577    
   4.91481400      0.647047520      -2.00000000       1385.71704     -0.320026577    
   4.82962894       1.29409504      -1.00000000       1791.18750     -0.249916017    
   4.82962894       1.29409504       0.00000000       1791.18750     -0.249916017    
   4.91481400      0.647047520       0.00000000       1791.18750     -0.249916017    
   4.91481400      0.647047520      -1.00000000       1791.18750     -0.249916017    
   4.91481400      0.647047520      -10.0000000       212.005310      -1.36597764    
   4.91481400      0.647047520      -9.00000000       212.005310      -1.36597764    
   5.00000000       0.00000000      -9.00000000       212.005310      -1.36597764    
   5.00000000       0.00000000      -10.0000000       212.005310      -1.36597764    
   4.91481400      0.647047520      -9.00000000       262.447571      -1.32927489    
   4.91481400      0.647047520      -8.00000000       262.447571      -1.32927489    
   5.00000000       0.00000000      -8.00000000       262.447571      -1.32927489    
   5.00000000       0.00000000      -9.00000000       262.447571      -1.32927489    
   4.91481400      0.647047520      -8.00000000       283.707336      -1.26397204    
   4.91481400      0.647047520      -7.00000000       283.707336      -1.26397204    
   5.00000000       0.00000000      -7.00000000       283.707336      -1.26397204    
   5.00000000       0.00000000      -8.00000000       283.707336      -1.26397204    
   4.91481400      0.647047520      -7.00000000       294.491089      -1.17012346    
   4.91481400      0.647047520      -6.00000000       294.491089      -1.17012346    
   5.00000000       0.00000000      -6.00000000       294.491089      -1.17012346    
   5.00000000       0.00000000      -7.00000000       294.491089      -1.17012346    
   4.91481400      0.647047520      -6.00000000       303.309143      -1.04270053    
   4.91481400      0.647047520      -5.00000000       303.309143      -1.04270053    
   5.00000000       0.00000000      -5.00000000       303.309143      -1.04270053    
   5.00000000       0.00000000      -6.00000000       303.309143      -1.04270053    
   4.91481400      0.647047520      -5.00000000       318.745453     -0.881785989    
   4.91481400      0.647047520      -4.00000000       318.745453     -0.881785989    
   5.00000000       0.00000000      -4.00000000       318.745453     -0.881785989    
   5.00000000       0.00000000      -5.00000000       318.745453     -0.881785989    
   4.91481400      0.647047520      -4.00000000       350.568695     -0.700171053    
   4.91481400      0.647047520      -3.00000000       350.568695     -0.700171053    
   5.00000000       0.00000000      -3.00000000       350.568695     -0.700171053    
   5.00000000       0.00000000      -4.00000000       350.568695     -0.700171053    
   4.91481400      0.647047520      -3.00000000       409.349792     -0.525100052    
   4.91481400      0.647047520      -2.00000000       409.349792     -0.525100052    
   5.00000000       0.00000000      -2.00000000       409.349792     -0.525100052    
   5.00000000       0.00000000      -3.00000000       409.349792     -0.525100052    
   4.91481400      0.647047520      -2.00000000       504.885284     -0.386219621    
   4.91481400      0.647047520      -1.00000000       504.885284     -0.386219621    
   5.00000000       0.00000000      -1.00000000       504.885284     -0.386219621    
   5.00000000       0.00000000      -2.00000000       504.885284     -0.386219621    
   4.91481400      0.647047520      -1.00000000       646.107971     -0.302929848    
   4.91481400      0.647047520       0.00000000       646.107971     -0.302929848    
   5.00000000       0.00000000       0.00000000       646.107971     -0.302929848    
   5.00000000       0.00000000      -1.00000000       646.107971     -0.302929848    
   4.33012676       2.50000000      -10.0000000       1190.22644      -1.33452618    
   4.33012676       2.50000000      -9.00000000       1190.22644      -1.33452618    
   4.57987785       1.89704800      -9.00000000       1190.22644      -1.33452618    
   4.57987785       1.89704800      -10.0000000       1190.22644      -1.33452618    
   4.33012676       2.50000000      -9.00000000       1507.23145      -1.29941130    
   4.33012676       2.50000000      -8.00000000       1507.23145      -1.29941130    
   4.57987785       1.89704800      -8.00000000       1507.23145      -1.29941130    
   4.57987785       1.89704800      -9.00000000       1507.23145      -1.29941130    
   4.33012676       2.50000000      -8.00000000       1646.99695      -1.22941566    
   4.33012676       2.50000000      -7.00000000       1646.99695      -1.22941566    
   4.57987785       1.89704800      -7.00000000       1646.99695      -1.22941566    
   4.57987785       1.89704800      -8.00000000       1646.99695      -1.22941566    
   4.33012676       2.50000000      -7.00000000       1722.55615      -1.12738061    
   4.33012676       2.50000000      -6.00000000       1722.55615      -1.12738061    
   4.57987785       1.89704800      -6.00000000       1722.55615      -1.12738061    
   4.57987785       1.89704800      -7.00000000       1722.55615      -1.12738061    
   4.33012676       2.50000000      -6.00000000       1790.82996     -0.989539862    
   4.33012676       2.50000000      -5.00000000       1790.82996     -0.989539862    
   4.57987785       1.89704800      -5.00000000       1790.82996     -0.989539862    
   4.57987785       1.89704800      -6.00000000       1790.82996     -0.989539862    
   4.33012676       2.50000000      -5.00000000       1908.38647     -0.818692863    
   4.33012676       2.50000000      -4.00000000       1908.38647     -0.818692863    
   4.57987785       1.89704800      -4.00000000       1908.38647     -0.818692863    
   4.57987785       1.89704800      -5.00000000       1908.38647     -0.818692863    
   4.33012676       2.50000000      -4.00000000       2137.92554     -0.632293403    
   4.33012676       2.50000000      -3.00000000       2137.92554     -0.632293403    
   4.57987785       1.89704800      -3.00000000       2137.92554     -0.632293403    
   4.57987785       1.89704800      -4.00000000       2137.92554     -0.632293403    
   4.33012676       2.50000000      -3.00000000       2543.40161     -0.460341364    
   4.33012676       2.50000000      -2.00000000       2543.40161     -0.460341364    
   4.57987785       1.89704800      -2.00000000       2543.40161     -0.460341364    
   4.57987785       1.89704800      -3.00000000       2543.40161     -0.460341364    
   4.33012676       2.50000000      -2.00000000       3180.95410     -0.330525845    
   4.33012676       2.50000000      -1.00000000       3180.95410     -0.330525845    
   4.57987785       1.89704800      -1.00000000       3180.95410     -0.330525845    
   4.57987785       1.89704800      -2.00000000       3180.95410     -0.330525845    
   4.33012676       2.50000000      -1.00000000       4105.65430     -0.258253723    
   4.33012676       2.50000000       0.00000000       4105.65430     -0.258253723    
   4.57987785       1.89704800       0.00000000       4105.65430     -0.258253723    
   4.57987785       1.89704800      -1.00000000       4105.65430     -0.258253723    
   4.57987785       1.89704800      -10.0000000       915.827637      -1.34482110    
   4.57987785       1.89704800      -9.00000000       915.827637      -1.34482110    
   4.82962894       1.29409504      -9.00000000       915.827637      -1.34482110    
   4.82962894       1.29409504      -10.0000000       915.827637      -1.34482110    
   4.57987785       1.89704800      -9.00000000       1151.24402      -1.30903769    
   4.57987785       1.89704800      -8.00000000       1151.24402      -1.30903769    
   4.82962894       1.29409504      -8.00000000       1151.24402      -1.30903769    
   4.82962894       1.29409504      -9.00000000       1151.24402      -1.30903769    
   4.57987785       1.89704800      -8.00000000       1253.60767      -1.24047339    
   4.57987785       1.89704800      -7.00000000       1253.60767      -1.24047339    
   4.82962894       1.29409504      -7.00000000       1253.60767      -1.24047339    
   4.82962894       1.29409504      -8.00000000       1253.60767      -1.24047339    
   4.57987785       1.89704800      -7.00000000       1307.87415      -1.14098763    
   4.57987785       1.89704800      -6.00000000       1307.87415      -1.14098763    
   4.82962894       1.29409504      -6.00000000       1307.87415      -1.14098763    
   4.82962894       1.29409504      -7.00000000       1307.87415      -1.14098763    
   4.57987785       1.89704800      -6.00000000       1355.53088      -1.00635529    
   4.57987785       1.89704800      -5.00000000       1355.53088      -1.00635529    
   4.82962894       1.29409504      -5.00000000       1355.53088      -1.00635529    
   4.82962894       1.29409504      -6.00000000       1355.53088      -1.00635529    
   4.57987785       1.89704800      -5.00000000       1438.01086     -0.838459432    
   4.57987785       1.89704800      -4.00000000       1438.01086     -0.838459432    
   4.82962894       1.29409504      -4.00000000       1438.01086     -0.838459432    
   4.82962894       1.29409504      -5.00000000       1438.01086     -0.838459432    
   4.57987785       1.89704800      -4.00000000       1601.65955     -0.653290212    
   4.57987785       1.89704800      -3.00000000       1601.65955     -0.653290212    
   4.82962894       1.29409504      -3.00000000       1601.65955     -0.653290212    
   4.82962894       1.29409504      -4.00000000       1601.65955     -0.653290212    
   4.57987785       1.89704800      -3.00000000       1894.62427     -0.480117023    
   4.57987785       1.89704800      -2.00000000       1894.62427     -0.480117023    
   4.82962894       1.29409504      -2.00000000       1894.62427     -0.480117023    
   4.82962894       1.29409504      -3.00000000       1894.62427     -0.480117023    
   4.57987785       1.89704800      -2.00000000       2359.82568     -0.347368658    
   4.57987785       1.89704800      -1.00000000       2359.82568     -0.347368658    
   4.82962894       1.29409504      -1.00000000       2359.82568     -0.347368658    
   4.82962894       1.29409504      -2.00000000       2359.82568     -0.347368658    
   4.57987785       1.89704800      -1.00000000       3038.34204     -0.271684229    
   4.57987785       1.89704800       0.00000000       3038.34204     -0.271684229    
   4.82962894       1.29409504       0.00000000       3038.34204     -0.271684229    
   4.82962894       1.29409504      -1.00000000       3038.34204     -0.271684229    
   3.53553391       3.53553391      -10.0000000       1792.92700      -1.33645117    
   3.53553391       3.53553391      -9.00000000       1792.92700      -1.33645117    
   3.93283010       3.01776695      -9.00000000       1792.92700      -1.33645117    
   3.93283010       3.01776695      -10.0000000       1792.92700      -1.33645117    
   3.53553391       3.53553391      -9.00000000       2267.34399      -1.30120063    
   3.53553391       3.53553391      -8.00000000       2267.34399      -1.30120063    
   3.93283010       3.01776695      -8.00000000       2267.34399      -1.30120063    
   3.93283010       3.01776695      -9.00000000       2267.34399      -1.30120063    
   3.53553391       3.53553391      -8.00000000       2475.98364      -1.23146546    
   3.53553391       3.53553391      -7.00000000       2475.98364      -1.23146546    
   3.93283010       3.01776695      -7.00000000       2475.98364      -1.23146546    
   3.93283010       3.01776695      -8.00000000       2475.98364      -1.23146546    
   3.53553391       3.53553391      -7.00000000       2588.37109      -1.12989700    
   3.53553391       3.53553391      -6.00000000       2588.37109      -1.12989700    
   3.93283010       3.01776695      -6.00000000       2588.37109      -1.12989700    
   3.93283010       3.01776695      -7.00000000       2588.37109      -1.12989700    
   3.53553391       3.53553391      -6.00000000       2689.41113     -0.992642164    
   3.53553391       3.53553391      -5.00000000       2689.41113     -0.992642164    
   3.93283010       3.01776695      -5.00000000       2689.41113     -0.992642164    
   3.93283010       3.01776695      -6.00000000       2689.41113     -0.992642164    
   3.53553391       3.53553391      -5.00000000       2863.55176     -0.822326005    
   3.53553391       3.53553391      -4.00000000       2863.55176     -0.822326005    
   3.93283010       3.01776695      -4.00000000       2863.55176     -0.822326005    
   3.93283010       3.01776695      -5.00000000       2863.55176     -0.822326005    
   3.53553391       3.53553391      -4.00000000       3204.55615     -0.636134565    
   3.53553391       3.53553391      -3.00000000       3204.55615     -0.636134565    
   3.93283010       3.01776695      -3.00000000       3204.55615     -0.636134565    
   3.93283010       3.01776695      -4.00000000       3204.55615     -0.636134565    
   3.53553391       3.53553391      -3.00000000       3808.38916     -0.463942289    
   3.53553391       3.53553391      -2.00000000       3808.38916     -0.463942289    
   3.93283010       3.01776695      -2.00000000       3808.38916     -0.463942289    
   3.93283010       3.01776695      -3.00000000       3808.38916     -0.463942289    
   3.53553391       3.53553391      -2.00000000       4759.51221     -0.333582789    
   3.53553391       3.53553391      -1.00000000       4759.51221     -0.333582789    
   3.93283010       3.01776695      -1.00000000       4759.51221     -0.333582789    
   3.93283010       3.01776695      -2.00000000       4759.51221     -0.333582789    
   3.53553391       3.53553391      -1.00000000       6140.40723     -0.260686219    
   3.53553391       3.53553391       0.00000000       6140.40723     -0.260686219    
   3.93283010       3.01776695       0.00000000       6140.40723     -0.260686219    
   3.93283010       3.01776695      -1.00000000       6140.40723     -0.260686219    
   3.93283010       3.01776695      -10.0000000       1557.29358      -1.34194148    
   3.93283010       3.01776695      -9.00000000       1557.29358      -1.34194148    
   4.33012676       2.50000000      -9.00000000       1557.29358      -1.34194148    
   4.33012676       2.50000000      -10.0000000       1557.29358      -1.34194148    
   3.93283010       3.01776695      -9.00000000       1961.64722      -1.30633044    
   3.93283010       3.01776695      -8.00000000       1961.64722      -1.30633044    
   4.33012676       2.50000000      -8.00000000       1961.64722      -1.30633044    
   4.33012676       2.50000000      -9.00000000       1961.64722      -1.30633044    
   3.93283010       3.01776695      -8.00000000       2138.16650      -1.23735607    
   3.93283010       3.01776695      -7.00000000       2138.16650      -1.23735607    
   4.33012676       2.50000000      -7.00000000       2138.16650      -1.23735607    
   4.33012676       2.50000000      -8.00000000       2138.16650      -1.23735607    
   3.93283010       3.01776695      -7.00000000       2232.26855      -1.13714468    
   3.93283010       3.01776695      -6.00000000       2232.26855      -1.13714468    
   4.33012676       2.50000000      -6.00000000       2232.26855      -1.13714468    
   4.33012676       2.50000000      -7.00000000       2232.26855      -1.13714468    
   3.93283010       3.01776695      -6.00000000       2315.60352      -1.00159609    
   3.93283010       3.01776695      -5.00000000       2315.60352      -1.00159609    
   4.33012676       2.50000000      -5.00000000       2315.60352      -1.00159609    
   4.33012676       2.50000000      -6.00000000       2315.60352      -1.00159609    
   3.93283010       3.01776695      -5.00000000       2459.61841     -0.832846284    
   3.93283010       3.01776695      -4.00000000       2459.61841     -0.832846284    
   4.33012676       2.50000000      -4.00000000       2459.61841     -0.832846284    
   4.33012676       2.50000000      -5.00000000       2459.61841     -0.832846284    
   3.93283010       3.01776695      -4.00000000       2744.03662     -0.647303283    
   3.93283010       3.01776695      -3.00000000       2744.03662     -0.647303283    
   4.33012676       2.50000000      -3.00000000       2744.03662     -0.647303283    
   4.33012676       2.50000000      -4.00000000       2744.03662     -0.647303283    
   3.93283010       3.01776695      -3.00000000       3251.25269     -0.474454820    
   3.93283010       3.01776695      -2.00000000       3251.25269     -0.474454820    
   4.33012676       2.50000000      -2.00000000       3251.25269     -0.474454820    
   4.33012676       2.50000000      -3.00000000       3251.25269     -0.474454820    
   3.93283010       3.01776695      -2.00000000       4054.37744     -0.342533052    
   3.93283010       3.01776695      -1.00000000       4054.37744     -0.342533052    
   4.33012676       2.50000000      -1.00000000       4054.37744     -0.342533052    
   4.33012676       2.50000000      -2.00000000       4054.37744     -0.342533052    
   3.93283010       3.01776695      -1.00000000       5223.87354     -0.267821610    
   3.93283010       3.01776695       0.00000000       5223.87354     -0.267821610    
   4.33012676       2.50000000       0.00000000       5223.87354     -0.267821610    
   4.33012676       2.50000000      -1.00000000       5223.87354     -0.267821610    
   2.50000000       4.33012676      -10.0000000       2273.44678      -1.33745909    
   2.50000000       4.33012676      -9.00000000       2273.44678      -1.33745909    
   3.01776695       3.93283010      -9.00000000       2273.44678      -1.33745909    
   3.01776695       3.93283010      -10.0000000       2273.44678      -1.33745909    
   2.50000000       4.33012676      -9.00000000       2872.94312      -1.30213892    
   2.50000000       4.33012676      -8.00000000       2872.94312      -1.30213892    
   3.01776695       3.93283010      -8.00000000       2872.94312      -1.30213892    
   3.01776695       3.93283010      -9.00000000       2872.94312      -1.30213892    
   2.50000000       4.33012676      -8.00000000       3136.23706      -1.23254132    
   2.50000000       4.33012676      -7.00000000       3136.23706      -1.23254132    
   3.01776695       3.93283010      -7.00000000       3136.23706      -1.23254132    
   3.01776695       3.93283010      -8.00000000       3136.23706      -1.23254132    
   2.50000000       4.33012676      -7.00000000       3277.80127      -1.13121974    
   2.50000000       4.33012676      -6.00000000       3277.80127      -1.13121974    
   3.01776695       3.93283010      -6.00000000       3277.80127      -1.13121974    
   3.01776695       3.93283010      -7.00000000       3277.80127      -1.13121974    
   2.50000000       4.33012676      -6.00000000       3404.72876     -0.994273901    
   2.50000000       4.33012676      -5.00000000       3404.72876     -0.994273901    
   3.01776695       3.93283010      -5.00000000       3404.72876     -0.994273901    
   3.01776695       3.93283010      -6.00000000       3404.72876     -0.994273901    
   2.50000000       4.33012676      -5.00000000       3623.59106     -0.824239194    
   2.50000000       4.33012676      -4.00000000       3623.59106     -0.824239194    
   3.01776695       3.93283010      -4.00000000       3623.59106     -0.824239194    
   3.01776695       3.93283010      -5.00000000       3623.59106     -0.824239194    
   2.50000000       4.33012676      -4.00000000       4052.82422     -0.638161302    
   2.50000000       4.33012676      -3.00000000       4052.82422     -0.638161302    
   3.01776695       3.93283010      -3.00000000       4052.82422     -0.638161302    
   3.01776695       3.93283010      -4.00000000       4052.82422     -0.638161302    
   2.50000000       4.33012676      -3.00000000       4813.86230     -0.465844929    
   2.50000000       4.33012676      -2.00000000       4813.86230     -0.465844929    
   3.01776695       3.93283010      -2.00000000       4813.86230     -0.465844929    
   3.01776695       3.93283010      -3.00000000       4813.86230     -0.465844929    
   2.50000000       4.33012676      -2.00000000       6013.74072     -0.335199594    
   2.50000000       4.33012676      -1.00000000       6013.74072     -0.335199594    
   3.01776695       3.93283010      -1.00000000       6013.74072     -0.335199594    
   3.01776695       3.93283010      -2.00000000       6013.74072     -0.335199594    
   2.50000000       4.33012676      -1.00000000       7756.72070     -0.261973947    
   2.50000000       4.33012676       0.00000000       7756.72070     -0.261973947    
   3.01776695       3.93283010       0.00000000       7756.72070     -0.261973947    
   3.01776695       3.93283010      -1.00000000       7756.72070     -0.261973947    
   3.01776695       3.93283010      -10.0000000       2092.63696      -1.34068096    
   3.01776695       3.93283010      -9.00000000       2092.63696      -1.34068096    
   3.53553391       3.53553391      -9.00000000       2092.63696      -1.34068096    
   3.53553391       3.53553391      -10.0000000       2092.63696      -1.34068096    
   3.01776695       3.93283010      -9.00000000       2638.37500      -1.30514932    
   3.01776695       3.93283010      -8.00000000       2638.37500      -1.30514932    
   3.53553391       3.53553391      -8.00000000       2638.37500      -1.30514932    
   3.53553391       3.53553391      -9.00000000       2638.37500      -1.30514932    
   3.01776695       3.93283010      -8.00000000       2877.02295      -1.23599803    
   3.01776695       3.93283010      -7.00000000       2877.02295      -1.23599803    
   3.53553391       3.53553391      -7.00000000       2877.02295      -1.23599803    
   3.53553391       3.53553391      -8.00000000       2877.02295      -1.23599803    
   3.01776695       3.93283010      -7.00000000       3004.55298      -1.13547158    
   3.01776695       3.93283010      -6.00000000       3004.55298      -1.13547158    
   3.53553391       3.53553391      -6.00000000       3004.55298      -1.13547158    
   3.53553391       3.53553391      -7.00000000       3004.55298      -1.13547158    
   3.01776695       3.93283010      -6.00000000       3117.89355     -0.999526560    
   3.01776695       3.93283010      -5.00000000       3117.89355     -0.999526560    
   3.53553391       3.53553391      -5.00000000       3117.89355     -0.999526560    
   3.53553391       3.53553391      -6.00000000       3117.89355     -0.999526560    
   3.01776695       3.93283010      -5.00000000       3313.63770     -0.830409944    
   3.01776695       3.93283010      -4.00000000       3313.63770     -0.830409944    
   3.53553391       3.53553391      -4.00000000       3313.63770     -0.830409944    
   3.53553391       3.53553391      -5.00000000       3313.63770     -0.830409944    
   3.01776695       3.93283010      -4.00000000       3699.45264     -0.644711256    
   3.01776695       3.93283010      -3.00000000       3699.45264     -0.644711256    
   3.53553391       3.53553391      -3.00000000       3699.45264     -0.644711256    
   3.53553391       3.53553391      -4.00000000       3699.45264     -0.644711256    
   3.01776695       3.93283010      -3.00000000       4386.35645     -0.472009063    
   3.01776695       3.93283010      -2.00000000       4386.35645     -0.472009063    
   3.53553391       3.53553391      -2.00000000       4386.35645     -0.472009063    
   3.53553391       3.53553391      -3.00000000       4386.35645     -0.472009063    
   3.01776695       3.93283010      -2.00000000       5472.66895     -0.340447068    
   3.01776695       3.93283010      -1.00000000       5472.66895     -0.340447068    
   3.53553391       3.53553391      -1.00000000       5472.66895     -0.340447068    
   3.53553391       3.53553391      -2.00000000       5472.66895     -0.340447068    
   3.01776695       3.93283010      -1.00000000       7053.43506     -0.266156882    
   3.01776695       3.93283010       0.00000000       7053.43506     -0.266156882    
   3.53553391       3.53553391       0.00000000       7053.43506     -0.266156882    
   3.53553391       3.53553391      -1.00000000       7053.43506     -0.266156882    
   1.29409504       4.82962894      -10.0000000       2599.03247      -1.33815408    
   1.29409504       4.82962894      -9.00000000       2599.03247      -1.33815408    
   1.89704800       4.57987785      -9.00000000       2599.03247      -1.33815408    
   1.89704800       4.57987785      -10.0000000       2599.03247      -1.33815408    
   1.29409504       4.82962894      -9.00000000       3282.75879      -1.30278730    
   1.29409504       4.82962894      -8.00000000       3282.75879      -1.30278730    
   1.89704800       4.57987785      -8.00000000       3282.75879      -1.30278730    
   1.89704800       4.57987785      -9.00000000       3282.75879      -1.30278730    
   1.29409504       4.82962894      -8.00000000       3582.76538      -1.23328507    
   1.29409504       4.82962894      -7.00000000       3582.76538      -1.23328507    
   1.89704800       4.57987785      -7.00000000       3582.76538      -1.23328507    
   1.89704800       4.57987785      -8.00000000       3582.76538      -1.23328507    
   1.29409504       4.82962894      -7.00000000       3743.85645      -1.13213384    
   1.29409504       4.82962894      -6.00000000       3743.85645      -1.13213384    
   1.89704800       4.57987785      -6.00000000       3743.85645      -1.13213384    
   1.89704800       4.57987785      -7.00000000       3743.85645      -1.13213384    
   1.29409504       4.82962894      -6.00000000       3888.02441     -0.995402515    
   1.29409504       4.82962894      -5.00000000       3888.02441     -0.995402515    
   1.89704800       4.57987785      -5.00000000       3888.02441     -0.995402515    
   1.89704800       4.57987785      -6.00000000       3888.02441     -0.995402515    
   1.29409504       4.82962894      -5.00000000       4136.69531     -0.825563610    
   1.29409504       4.82962894      -4.00000000       4136.69531     -0.825563610    
   1.89704800       4.57987785      -4.00000000       4136.69531     -0.825563610    
   1.89704800       4.57987785      -5.00000000       4136.69531     -0.825563610    
   1.29409504       4.82962894      -4.00000000       4624.91309     -0.639564693    
   1.29409504       4.82962894      -3.00000000       4624.91309     -0.639564693    
   1.89704800       4.57987785      -3.00000000       4624.91309     -0.639564693    