 VARIABLES="X" "Y" "Z" "abs(p) (Pa)" "angle(p) (rad)"
ZONE N=   1080,E =     600, F=FEPOINT, ET=QUADRILATERAL
   4.82962894       1.29409504      -10.0000000       2767.28418      -1.37058663    
   4.82962894       1.29409504      -9.00000000       2767.28418      -1.37058663    
   4.91481400      0.647047520      -9.00000000       2767.28418      -1.37058663    
   4.91481400      0.647047520      -10.0000000       2767.28418      -1.37058663    
   4.82962894       1.29409504      -9.00000000       3475.91016      -1.33599031    
   4.82962894       1.29409504      -8.00000000       3475.91016      -1.33599031    
   4.91481400      0.647047520      -8.00000000       3475.91016      -1.33599031    
   4.91481400      0.647047520      -9.00000000       3475.91016      -1.33599031    
   4.82962894       1.29409504      -8.00000000       3765.61206      -1.26932776    
   4.82962894       1.29409504      -7.00000000       3765.61206      -1.26932776    
   4.91481400      0.647047520      -7.00000000       3765.61206      -1.26932776    
   4.91481400      0.647047520      -8.00000000       3765.61206      -1.26932776    
   4.82962894       1.29409504      -7.00000000       3892.95337      -1.17024767    
   4.82962894       1.29409504      -6.00000000       3892.95337      -1.17024767    
   4.91481400      0.647047520      -6.00000000       3892.95337      -1.17024767    
   4.91481400      0.647047520      -7.00000000       3892.95337      -1.17024767    
   4.82962894       1.29409504      -6.00000000       3984.19141      -1.03175199    
   4.82962894       1.29409504      -5.00000000       3984.19141      -1.03175199    
   4.91481400      0.647047520      -5.00000000       3984.19141      -1.03175199    
   4.91481400      0.647047520      -6.00000000       3984.19141      -1.03175199    
   4.82962894       1.29409504      -5.00000000       4172.47168     -0.852357924    
   4.82962894       1.29409504      -4.00000000       4172.47168     -0.852357924    
   4.91481400      0.647047520      -4.00000000       4172.47168     -0.852357924    
   4.91481400      0.647047520      -5.00000000       4172.47168     -0.852357924    
   4.82962894       1.29409504      -4.00000000       4617.88428     -0.648156345    
   4.82962894       1.29409504      -3.00000000       4617.88428     -0.648156345    
   4.91481400      0.647047520      -3.00000000       4617.88428     -0.648156345    
   4.91481400      0.647047520      -4.00000000       4617.88428     -0.648156345    
   4.82962894       1.29409504      -3.00000000       5484.50049     -0.454550058    
   4.82962894       1.29409504      -2.00000000       5484.50049     -0.454550058    
   4.91481400      0.647047520      -2.00000000       5484.50049     -0.454550058    
   4.91481400      0.647047520      -3.00000000       5484.50049     -0.454550058    
   4.82962894       1.29409504      -2.00000000       6916.09473     -0.307200462    
   4.82962894       1.29409504      -1.00000000       6916.09473     -0.307200462    
   4.91481400      0.647047520      -1.00000000       6916.09473     -0.307200462    
   4.91481400      0.647047520      -2.00000000       6916.09473     -0.307200462    
   4.82962894       1.29409504      -1.00000000       9041.75684     -0.225352913    
   4.82962894       1.29409504       0.00000000       9041.75684     -0.225352913    
   4.91481400      0.647047520       0.00000000       9041.75684     -0.225352913    
   4.91481400      0.647047520      -1.00000000       9041.75684     -0.225352913    
   4.91481400      0.647047520      -10.0000000       2806.83423      -1.37010753    
   4.91481400      0.647047520      -9.00000000       2806.83423      -1.37010753    
   5.00000000       0.00000000      -9.00000000       2806.83423      -1.37010753    
   5.00000000       0.00000000      -10.0000000       2806.83423      -1.37010753    
   4.91481400      0.647047520      -9.00000000       3526.95337      -1.33553314    
   4.91481400      0.647047520      -8.00000000       3526.95337      -1.33553314    
   5.00000000       0.00000000      -8.00000000       3526.95337      -1.33553314    
   5.00000000       0.00000000      -9.00000000       3526.95337      -1.33553314    
   4.91481400      0.647047520      -8.00000000       3821.56494      -1.26878846    
   4.91481400      0.647047520      -7.00000000       3821.56494      -1.26878846    
   5.00000000       0.00000000      -7.00000000       3821.56494      -1.26878846    
   5.00000000       0.00000000      -8.00000000       3821.56494      -1.26878846    
   4.91481400      0.647047520      -7.00000000       3951.23950      -1.16956139    
   4.91481400      0.647047520      -6.00000000       3951.23950      -1.16956139    
   5.00000000       0.00000000      -6.00000000       3951.23950      -1.16956139    
   5.00000000       0.00000000      -7.00000000       3951.23950      -1.16956139    
   4.91481400      0.647047520      -6.00000000       4044.42261      -1.03086889    
   4.91481400      0.647047520      -5.00000000       4044.42261      -1.03086889    
   5.00000000       0.00000000      -5.00000000       4044.42261      -1.03086889    
   5.00000000       0.00000000      -6.00000000       4044.42261      -1.03086889    
   4.91481400      0.647047520      -5.00000000       4236.55127     -0.851273775    
   4.91481400      0.647047520      -4.00000000       4236.55127     -0.851273775    
   5.00000000       0.00000000      -4.00000000       4236.55127     -0.851273775    
   5.00000000       0.00000000      -5.00000000       4236.55127     -0.851273775    
   4.91481400      0.647047520      -4.00000000       4690.39014     -0.646968246    
   4.91481400      0.647047520      -3.00000000       4690.39014     -0.646968246    
   5.00000000       0.00000000      -3.00000000       4690.39014     -0.646968246    
   5.00000000       0.00000000      -4.00000000       4690.39014     -0.646968246    
   4.91481400      0.647047520      -3.00000000       5572.54980     -0.453418821    
   4.91481400      0.647047520      -2.00000000       5572.54980     -0.453418821    
   5.00000000       0.00000000      -2.00000000       5572.54980     -0.453418821    
   5.00000000       0.00000000      -3.00000000       5572.54980     -0.453418821    
   4.91481400      0.647047520      -2.00000000       7028.87744     -0.306244075    
   4.91481400      0.647047520      -1.00000000       7028.87744     -0.306244075    
   5.00000000       0.00000000      -1.00000000       7028.87744     -0.306244075    
   5.00000000       0.00000000      -2.00000000       7028.87744     -0.306244075    
   4.91481400      0.647047520      -1.00000000       9190.49121     -0.224601269    
   4.91481400      0.647047520       0.00000000       9190.49121     -0.224601269    
   5.00000000       0.00000000       0.00000000       9190.49121     -0.224601269    
   5.00000000       0.00000000      -1.00000000       9190.49121     -0.224601269    
   4.33012676       2.50000000      -10.0000000       2539.15210      -1.37111652    
   4.33012676       2.50000000      -9.00000000       2539.15210      -1.37111652    
   4.57987785       1.89704800      -9.00000000       2539.15210      -1.37111652    
   4.57987785       1.89704800      -10.0000000       2539.15210      -1.37111652    
   4.33012676       2.50000000      -9.00000000       3187.99634      -1.33649623    
   4.33012676       2.50000000      -8.00000000       3187.99634      -1.33649623    
   4.57987785       1.89704800      -8.00000000       3187.99634      -1.33649623    
   4.57987785       1.89704800      -9.00000000       3187.99634      -1.33649623    
   4.33012676       2.50000000      -8.00000000       3453.04443      -1.26992524    
   4.33012676       2.50000000      -7.00000000       3453.04443      -1.26992524    
   4.57987785       1.89704800      -7.00000000       3453.04443      -1.26992524    
   4.57987785       1.89704800      -8.00000000       3453.04443      -1.26992524    
   4.33012676       2.50000000      -7.00000000       3569.37280      -1.17100763    
   4.33012676       2.50000000      -6.00000000       3569.37280      -1.17100763    
   4.57987785       1.89704800      -6.00000000       3569.37280      -1.17100763    
   4.57987785       1.89704800      -7.00000000       3569.37280      -1.17100763    
   4.33012676       2.50000000      -6.00000000       3652.44702      -1.03273022    
   4.33012676       2.50000000      -5.00000000       3652.44702      -1.03273022    
   4.57987785       1.89704800      -5.00000000       3652.44702      -1.03273022    
   4.57987785       1.89704800      -6.00000000       3652.44702      -1.03273022    
   4.33012676       2.50000000      -5.00000000       3824.05176     -0.853559375    
   4.33012676       2.50000000      -4.00000000       3824.05176     -0.853559375    
   4.57987785       1.89704800      -4.00000000       3824.05176     -0.853559375    
   4.57987785       1.89704800      -5.00000000       3824.05176     -0.853559375    
   4.33012676       2.50000000      -4.00000000       4230.68408     -0.649474084    
   4.33012676       2.50000000      -3.00000000       4230.68408     -0.649474084    
   4.57987785       1.89704800      -3.00000000       4230.68408     -0.649474084    
   4.57987785       1.89704800      -4.00000000       4230.68408     -0.649474084    
   4.33012676       2.50000000      -3.00000000       5022.69873     -0.455805540    
   4.33012676       2.50000000      -2.00000000       5022.69873     -0.455805540    
   4.57987785       1.89704800      -2.00000000       5022.69873     -0.455805540    
   4.57987785       1.89704800      -3.00000000       5022.69873     -0.455805540    
   4.33012676       2.50000000      -2.00000000       6331.99756     -0.308262080    
   4.33012676       2.50000000      -1.00000000       6331.99756     -0.308262080    
   4.57987785       1.89704800      -1.00000000       6331.99756     -0.308262080    
   4.57987785       1.89704800      -2.00000000       6331.99756     -0.308262080    
   4.33012676       2.50000000      -1.00000000       8276.85156     -0.226187408    
   4.33012676       2.50000000       0.00000000       8276.85156     -0.226187408    
   4.57987785       1.89704800       0.00000000       8276.85156     -0.226187408    
   4.57987785       1.89704800      -1.00000000       8276.85156     -0.226187408    
   4.57987785       1.89704800      -10.0000000       2655.10205      -1.36960804    
   4.57987785       1.89704800      -9.00000000       2655.10205      -1.36960804    
   4.82962894       1.29409504      -9.00000000       2655.10205      -1.36960804    
   4.82962894       1.29409504      -10.0000000       2655.10205      -1.36960804    
   4.57987785       1.89704800      -9.00000000       3337.63672      -1.33505678    
   4.57987785       1.89704800      -8.00000000       3337.63672      -1.33505678    
   4.82962894       1.29409504      -8.00000000       3337.63672      -1.33505678    
   4.82962894       1.29409504      -9.00000000       3337.63672      -1.33505678    
   4.57987785       1.89704800      -8.00000000       3617.08569      -1.26822674    
   4.57987785       1.89704800      -7.00000000       3617.08569      -1.26822674    
   4.82962894       1.29409504      -7.00000000       3617.08569      -1.26822674    
   4.82962894       1.29409504      -8.00000000       3617.08569      -1.26822674    
   4.57987785       1.89704800      -7.00000000       3740.25610      -1.16884685    
   4.57987785       1.89704800      -6.00000000       3740.25610      -1.16884685    
   4.82962894       1.29409504      -6.00000000       3740.25610      -1.16884685    
   4.82962894       1.29409504      -7.00000000       3740.25610      -1.16884685    
   4.57987785       1.89704800      -6.00000000       3829.03809      -1.02994967    
   4.57987785       1.89704800      -5.00000000       3829.03809      -1.02994967    
   4.82962894       1.29409504      -5.00000000       3829.03809      -1.02994967    
   4.82962894       1.29409504      -6.00000000       3829.03809      -1.02994967    
   4.57987785       1.89704800      -5.00000000       4011.92383     -0.850146890    
   4.57987785       1.89704800      -4.00000000       4011.92383     -0.850146890    
   4.82962894       1.29409504      -4.00000000       4011.92383     -0.850146890    
   4.82962894       1.29409504      -5.00000000       4011.92383     -0.850146890    
   4.57987785       1.89704800      -4.00000000       4443.26025     -0.645733237    
   4.57987785       1.89704800      -3.00000000       4443.26025     -0.645733237    
   4.82962894       1.29409504      -3.00000000       4443.26025     -0.645733237    
   4.82962894       1.29409504      -4.00000000       4443.26025     -0.645733237    
   4.57987785       1.89704800      -3.00000000       5280.84473     -0.452244639    
   4.57987785       1.89704800      -2.00000000       5280.84473     -0.452244639    
   4.82962894       1.29409504      -2.00000000       5280.84473     -0.452244639    
   4.82962894       1.29409504      -3.00000000       5280.84473     -0.452244639    
   4.57987785       1.89704800      -2.00000000       6662.66113     -0.305251658    
   4.57987785       1.89704800      -1.00000000       6662.66113     -0.305251658    
   4.82962894       1.29409504      -1.00000000       6662.66113     -0.305251658    
   4.82962894       1.29409504      -2.00000000       6662.66113     -0.305251658    
   4.57987785       1.89704800      -1.00000000       8712.91113     -0.223821253    
   4.57987785       1.89704800       0.00000000       8712.91113     -0.223821253    
   4.82962894       1.29409504       0.00000000       8712.91113     -0.223821253    
   4.82962894       1.29409504      -1.00000000       8712.91113     -0.223821253    
   3.53553391       3.53553391      -10.0000000       2137.98267      -1.37180233    
   3.53553391       3.53553391      -9.00000000       2137.98267      -1.37180233    
   3.93283010       3.01776695      -9.00000000       2137.98267      -1.37180233    
   3.93283010       3.01776695      -10.0000000       2137.98267      -1.37180233    
   3.53553391       3.53553391      -9.00000000       2682.82471      -1.33715212    
   3.53553391       3.53553391      -8.00000000       2682.82471      -1.33715212    
   3.93283010       3.01776695      -8.00000000       2682.82471      -1.33715212    
   3.93283010       3.01776695      -9.00000000       2682.82471      -1.33715212    
   3.53553391       3.53553391      -8.00000000       2905.15527      -1.27069914    
   3.53553391       3.53553391      -7.00000000       2905.15527      -1.27069914    
   3.93283010       3.01776695      -7.00000000       2905.15527      -1.27069914    
   3.93283010       3.01776695      -8.00000000       2905.15527      -1.27069914    
   3.53553391       3.53553391      -7.00000000       3002.54565      -1.17199254    
   3.53553391       3.53553391      -6.00000000       3002.54565      -1.17199254    
   3.93283010       3.01776695      -6.00000000       3002.54565      -1.17199254    
   3.93283010       3.01776695      -7.00000000       3002.54565      -1.17199254    
   3.53553391       3.53553391      -6.00000000       3071.80078      -1.03399992    
   3.53553391       3.53553391      -5.00000000       3071.80078      -1.03399992    
   3.93283010       3.01776695      -5.00000000       3071.80078      -1.03399992    
   3.93283010       3.01776695      -6.00000000       3071.80078      -1.03399992    
   3.53553391       3.53553391      -5.00000000       3215.03418     -0.855118454    
   3.53553391       3.53553391      -4.00000000       3215.03418     -0.855118454    
   3.93283010       3.01776695      -4.00000000       3215.03418     -0.855118454    
   3.93283010       3.01776695      -5.00000000       3215.03418     -0.855118454    
   3.53553391       3.53553391      -4.00000000       3555.17993     -0.651185393    
   3.53553391       3.53553391      -3.00000000       3555.17993     -0.651185393    
   3.93283010       3.01776695      -3.00000000       3555.17993     -0.651185393    
   3.93283010       3.01776695      -4.00000000       3555.17993     -0.651185393    
   3.53553391       3.53553391      -3.00000000       4218.62012     -0.457437128    
   3.53553391       3.53553391      -2.00000000       4218.62012     -0.457437128    
   3.93283010       3.01776695      -2.00000000       4218.62012     -0.457437128    
   3.93283010       3.01776695      -3.00000000       4218.62012     -0.457437128    
   3.53553391       3.53553391      -2.00000000       5316.39551     -0.309643209    
   3.53553391       3.53553391      -1.00000000       5316.39551     -0.309643209    
   3.93283010       3.01776695      -1.00000000       5316.39551     -0.309643209    
   3.93283010       3.01776695      -2.00000000       5316.39551     -0.309643209    
   3.53553391       3.53553391      -1.00000000       6947.89600     -0.227273703    
   3.53553391       3.53553391       0.00000000       6947.89600     -0.227273703    
   3.93283010       3.01776695       0.00000000       6947.89600     -0.227273703    
   3.93283010       3.01776695      -1.00000000       6947.89600     -0.227273703    
   3.93283010       3.01776695      -10.0000000       2322.42920      -1.36900425    
   3.93283010       3.01776695      -9.00000000       2322.42920      -1.36900425    
   4.33012676       2.50000000      -9.00000000       2322.42920      -1.36900425    
   4.33012676       2.50000000      -10.0000000       2322.42920      -1.36900425    
   3.93283010       3.01776695      -9.00000000       2920.86719      -1.33448148    
   3.93283010       3.01776695      -8.00000000       2920.86719      -1.33448148    
   4.33012676       2.50000000      -8.00000000       2920.86719      -1.33448148    
   4.33012676       2.50000000      -9.00000000       2920.86719      -1.33448148    
   3.93283010       3.01776695      -8.00000000       3166.11084      -1.26754904    
   3.93283010       3.01776695      -7.00000000       3166.11084      -1.26754904    
   4.33012676       2.50000000      -7.00000000       3166.11084      -1.26754904    
   4.33012676       2.50000000      -8.00000000       3166.11084      -1.26754904    
   3.93283010       3.01776695      -7.00000000       3274.38501      -1.16798496    
   3.93283010       3.01776695      -6.00000000       3274.38501      -1.16798496    
   4.33012676       2.50000000      -6.00000000       3274.38501      -1.16798496    
   4.33012676       2.50000000      -7.00000000       3274.38501      -1.16798496    
   3.93283010       3.01776695      -6.00000000       3352.71240      -1.02884054    
   3.93283010       3.01776695      -5.00000000       3352.71240      -1.02884054    
   4.33012676       2.50000000      -5.00000000       3352.71240      -1.02884054    
   4.33012676       2.50000000      -6.00000000       3352.71240      -1.02884054    
   3.93283010       3.01776695      -5.00000000       3513.89355     -0.848787546    
   3.93283010       3.01776695      -4.00000000       3513.89355     -0.848787546    
   4.33012676       2.50000000      -4.00000000       3513.89355     -0.848787546    
   4.33012676       2.50000000      -5.00000000       3513.89355     -0.848787546    
   3.93283010       3.01776695      -4.00000000       3893.34033     -0.644245625    
   3.93283010       3.01776695      -3.00000000       3893.34033     -0.644245625    
   4.33012676       2.50000000      -3.00000000       3893.34033     -0.644245625    
   4.33012676       2.50000000      -4.00000000       3893.34033     -0.644245625    
   3.93283010       3.01776695      -3.00000000       4629.27002     -0.450830638    
   3.93283010       3.01776695      -2.00000000       4629.27002     -0.450830638    
   4.33012676       2.50000000      -2.00000000       4629.27002     -0.450830638    
   4.33012676       2.50000000      -3.00000000       4629.27002     -0.450830638    
   3.93283010       3.01776695      -2.00000000       5842.40430     -0.304057688    
   3.93283010       3.01776695      -1.00000000       5842.40430     -0.304057688    
   4.33012676       2.50000000      -1.00000000       5842.40430     -0.304057688    
   4.33012676       2.50000000      -2.00000000       5842.40430     -0.304057688    
   3.93283010       3.01776695      -1.00000000       7641.56934     -0.222883284    
   3.93283010       3.01776695       0.00000000       7641.56934     -0.222883284    
   4.33012676       2.50000000       0.00000000       7641.56934     -0.222883284    
   4.33012676       2.50000000      -1.00000000       7641.56934     -0.222883284    
   2.50000000       4.33012676      -10.0000000       1591.11108      -1.37289643    
   2.50000000       4.33012676      -9.00000000       1591.11108      -1.37289643    
   3.01776695       3.93283010      -9.00000000       1591.11108      -1.37289643    
   3.01776695       3.93283010      -10.0000000       1591.11108      -1.37289643    
   2.50000000       4.33012676      -9.00000000       1994.82593      -1.33819973    
   2.50000000       4.33012676      -8.00000000       1994.82593      -1.33819973    
   3.01776695       3.93283010      -8.00000000       1994.82593      -1.33819973    
   3.01776695       3.93283010      -9.00000000       1994.82593      -1.33819973    
   2.50000000       4.33012676      -8.00000000       2159.28687      -1.27193654    
   2.50000000       4.33012676      -7.00000000       2159.28687      -1.27193654    
   3.01776695       3.93283010      -7.00000000       2159.28687      -1.27193654    
   3.01776695       3.93283010      -8.00000000       2159.28687      -1.27193654    
   2.50000000       4.33012676      -7.00000000       2231.10498      -1.17356861    
   2.50000000       4.33012676      -6.00000000       2231.10498      -1.17356861    
   3.01776695       3.93283010      -6.00000000       2231.10498      -1.17356861    
   3.01776695       3.93283010      -7.00000000       2231.10498      -1.17356861    
   2.50000000       4.33012676      -6.00000000       2281.82275      -1.03603065    
   2.50000000       4.33012676      -5.00000000       2281.82275      -1.03603065    
   3.01776695       3.93283010      -5.00000000       2281.82275      -1.03603065    
   3.01776695       3.93283010      -6.00000000       2281.82275      -1.03603065    
   2.50000000       4.33012676      -5.00000000       2386.92773     -0.857615292    
   2.50000000       4.33012676      -4.00000000       2386.92773     -0.857615292    
   3.01776695       3.93283010      -4.00000000       2386.92773     -0.857615292    
   3.01776695       3.93283010      -5.00000000       2386.92773     -0.857615292    
   2.50000000       4.33012676      -4.00000000       2637.41089     -0.653930604    
   2.50000000       4.33012676      -3.00000000       2637.41089     -0.653930604    
   3.01776695       3.93283010      -3.00000000       2637.41089     -0.653930604    
   3.01776695       3.93283010      -4.00000000       2637.41089     -0.653930604    
   2.50000000       4.33012676      -3.00000000       3127.06543     -0.460056782    
   2.50000000       4.33012676      -2.00000000       3127.06543     -0.460056782    
   3.01776695       3.93283010      -2.00000000       3127.06543     -0.460056782    
   3.01776695       3.93283010      -3.00000000       3127.06543     -0.460056782    
   2.50000000       4.33012676      -2.00000000       3938.50317     -0.311863482    
   2.50000000       4.33012676      -1.00000000       3938.50317     -0.311863482    
   3.01776695       3.93283010      -1.00000000       3938.50317     -0.311863482    
   3.01776695       3.93283010      -2.00000000       3938.50317     -0.311863482    
   2.50000000       4.33012676      -1.00000000       5145.46729     -0.229020849    
   2.50000000       4.33012676       0.00000000       5145.46729     -0.229020849    
   3.01776695       3.93283010       0.00000000       5145.46729     -0.229020849    
   3.01776695       3.93283010      -1.00000000       5145.46729     -0.229020849    
   3.01776695       3.93283010      -10.0000000       1831.48840      -1.36812925    
   3.01776695       3.93283010      -9.00000000       1831.48840      -1.36812925    
   3.53553391       3.53553391      -9.00000000       1831.48840      -1.36812925    
   3.53553391       3.53553391      -10.0000000       1831.48840      -1.36812925    
   3.01776695       3.93283010      -9.00000000       2305.04639      -1.33364844    
   3.01776695       3.93283010      -8.00000000       2305.04639      -1.33364844    
   3.53553391       3.53553391      -8.00000000       2305.04639      -1.33364844    
   3.53553391       3.53553391      -9.00000000       2305.04639      -1.33364844    
   3.01776695       3.93283010      -8.00000000       2499.37036      -1.26656795    
   3.01776695       3.93283010      -7.00000000       2499.37036      -1.26656795    
   3.53553391       3.53553391      -7.00000000       2499.37036      -1.26656795    
   3.53553391       3.53553391      -8.00000000       2499.37036      -1.26656795    
   3.01776695       3.93283010      -7.00000000       2585.37134      -1.16673768    
   3.01776695       3.93283010      -6.00000000       2585.37134      -1.16673768    
   3.53553391       3.53553391      -6.00000000       2585.37134      -1.16673768    
   3.53553391       3.53553391      -7.00000000       2585.37134      -1.16673768    
   3.01776695       3.93283010      -6.00000000       2647.91138      -1.02723682    
   3.01776695       3.93283010      -5.00000000       2647.91138      -1.02723682    
   3.53553391       3.53553391      -5.00000000       2647.91138      -1.02723682    
   3.53553391       3.53553391      -6.00000000       2647.91138      -1.02723682    
   3.01776695       3.93283010      -5.00000000       2776.40967     -0.846823812    
   3.01776695       3.93283010      -4.00000000       2776.40967     -0.846823812    
   3.53553391       3.53553391      -4.00000000       2776.40967     -0.846823812    
   3.53553391       3.53553391      -5.00000000       2776.40967     -0.846823812    
   3.01776695       3.93283010      -4.00000000       3078.10352     -0.642097831    
   3.01776695       3.93283010      -3.00000000       3078.10352     -0.642097831    
   3.53553391       3.53553391      -3.00000000       3078.10352     -0.642097831    
   3.53553391       3.53553391      -4.00000000       3078.10352     -0.642097831    
   3.01776695       3.93283010      -3.00000000       3662.23071     -0.448791385    
   3.01776695       3.93283010      -2.00000000       3662.23071     -0.448791385    
   3.53553391       3.53553391      -2.00000000       3662.23071     -0.448791385    
   3.53553391       3.53553391      -3.00000000       3662.23071     -0.448791385    
   3.01776695       3.93283010      -2.00000000       4624.00830     -0.302336305    
   3.01776695       3.93283010      -1.00000000       4624.00830     -0.302336305    
   3.53553391       3.53553391      -1.00000000       4624.00830     -0.302336305    
   3.53553391       3.53553391      -2.00000000       4624.00830     -0.302336305    
   3.01776695       3.93283010      -1.00000000       6049.48047     -0.221531779    
   3.01776695       3.93283010       0.00000000       6049.48047     -0.221531779    
   3.53553391       3.53553391       0.00000000       6049.48047     -0.221531779    
   3.53553391       3.53553391      -1.00000000       6049.48047     -0.221531779    
   1.29409504       4.82962894      -10.0000000       935.813721      -1.37539637    
   1.29409504       4.82962894      -9.00000000       935.813721      -1.37539637    
   1.89704800       4.57987785      -9.00000000       935.813721      -1.37539637    
   1.89704800       4.57987785      -10.0000000       935.813721      -1.37539637    
   1.29409504       4.82962894      -9.00000000       1170.88428      -1.34060025    
   1.29409504       4.82962894      -8.00000000       1170.88428      -1.34060025    
   1.89704800       4.57987785      -8.00000000       1170.88428      -1.34060025    
   1.89704800       4.57987785      -9.00000000       1170.88428      -1.34060025    
   1.29409504       4.82962894      -8.00000000       1266.27356      -1.27477598    
   1.29409504       4.82962894      -7.00000000       1266.27356      -1.27477598    
   1.89704800       4.57987785      -7.00000000       1266.27356      -1.27477598    
   1.89704800       4.57987785      -8.00000000       1266.27356      -1.27477598    
   1.29409504       4.82962894      -7.00000000       1307.63074      -1.17718792    
   1.29409504       4.82962894      -6.00000000       1307.63074      -1.17718792    
   1.89704800       4.57987785      -6.00000000       1307.63074      -1.17718792    
   1.89704800       4.57987785      -7.00000000       1307.63074      -1.17718792    
   1.29409504       4.82962894      -6.00000000       1336.36243      -1.04069996    
   1.29409504       4.82962894      -5.00000000       1336.36243      -1.04069996    
   1.89704800       4.57987785      -5.00000000       1336.36243      -1.04069996    
   1.89704800       4.57987785      -6.00000000       1336.36243      -1.04069996    
   1.29409504       4.82962894      -5.00000000       1396.18945     -0.863364935    
   1.29409504       4.82962894      -4.00000000       1396.18945     -0.863364935    
   1.89704800       4.57987785      -4.00000000       1396.18945     -0.863364935    
   1.89704800       4.57987785      -5.00000000       1396.18945     -0.863364935    
   1.29409504       4.82962894      -4.00000000       1539.95056     -0.660267234    
   1.29409504       4.82962894      -3.00000000       1539.95056     -0.660267234    
   1.89704800       4.57987785      -3.00000000       1539.95056     -0.660267234    