VARIABLES="X" "Y" "Z" "NX" "NY" "NZ" "A"
 ZONE N=         802 , E=         800  , F=FEPOINT,ET=QUADRILATERAL
   0.1901165E+01   0.1208230E+00  -0.0000000E+00   0.0000000E+00   0.0000000E+00   0.0000000E+00   0.0000000E+00
   0.1904041E+01   0.6044200E-01  -0.0000000E+00   0.0000000E+00   0.0000000E+00   0.0000000E+00   0.0000000E+00
   0.0000000E+00   0.0000000E+00   0.0000000E+00   0.0000000E+00   0.0000000E+00   0.0000000E+00   0.0000000E+00
   0.1905000E+01   0.0000000E+00  -0.0000000E+00   0.0000000E+00   0.0000000E+00   0.0000000E+00   0.0000000E+00
   0.1904041E+01  -0.6044200E-01  -0.0000000E+00   0.0000000E+00   0.0000000E+00   0.0000000E+00   0.0000000E+00
   0.1881071E+01   0.3009930E+00  -0.0000000E+00   0.0000000E+00   0.0000000E+00   0.0000000E+00   0.0000000E+00
   0.1889674E+01   0.2411590E+00  -0.0000000E+00   0.0000000E+00   0.0000000E+00   0.0000000E+00   0.0000000E+00
   0.1896374E+01   0.1810820E+00  -0.0000000E+00   0.0000000E+00   0.0000000E+00   0.0000000E+00   0.0000000E+00
   0.1843942E+01   0.4784370E+00  -0.0000000E+00   0.0000000E+00   0.0000000E+00   0.0000000E+00   0.0000000E+00
   0.1858194E+01   0.4196920E+00  -0.0000000E+00   0.0000000E+00   0.0000000E+00   0.0000000E+00   0.0000000E+00
   0.1870574E+01   0.3605240E+00  -0.0000000E+00   0.0000000E+00   0.0000000E+00   0.0000000E+00   0.0000000E+00
   0.1790114E+01   0.6515480E+00  -0.0000000E+00   0.0000000E+00   0.0000000E+00   0.0000000E+00   0.0000000E+00
   0.1809886E+01   0.5944240E+00  -0.0000000E+00   0.0000000E+00   0.0000000E+00   0.0000000E+00   0.0000000E+00
   0.1827834E+01   0.5367010E+00  -0.0000000E+00   0.0000000E+00   0.0000000E+00   0.0000000E+00   0.0000000E+00
   0.1720075E+01   0.8187590E+00  -0.0000000E+00   0.0000000E+00   0.0000000E+00   0.0000000E+00   0.0000000E+00
   0.1745187E+01   0.7637730E+00  -0.0000000E+00   0.0000000E+00   0.0000000E+00   0.0000000E+00   0.0000000E+00
   0.1768541E+01   0.7080170E+00  -0.0000000E+00   0.0000000E+00   0.0000000E+00   0.0000000E+00   0.0000000E+00
   0.1634458E+01   0.9785550E+00  -0.0000000E+00   0.0000000E+00   0.0000000E+00   0.0000000E+00   0.0000000E+00
   0.1664683E+01   0.9262050E+00  -0.0000000E+00   0.0000000E+00   0.0000000E+00   0.0000000E+00   0.0000000E+00
   0.1693232E+01   0.8729220E+00  -0.0000000E+00   0.0000000E+00   0.0000000E+00   0.0000000E+00   0.0000000E+00
   0.1534040E+01   0.1129490E+01  -0.0000000E+00   0.0000000E+00   0.0000000E+00   0.0000000E+00   0.0000000E+00
   0.1569104E+01   0.1080249E+01  -0.0000000E+00   0.0000000E+00   0.0000000E+00   0.0000000E+00   0.0000000E+00
   0.1602588E+01   0.1029921E+01  -0.0000000E+00   0.0000000E+00   0.0000000E+00   0.0000000E+00   0.0000000E+00
   0.1419729E+01   0.1270195E+01  -0.0000000E+00   0.0000000E+00   0.0000000E+00   0.0000000E+00   0.0000000E+00
   0.1459315E+01   0.1224510E+01  -0.0000000E+00   0.0000000E+00   0.0000000E+00   0.0000000E+00   0.0000000E+00
   0.1497431E+01   0.1177593E+01  -0.0000000E+00   0.0000000E+00   0.0000000E+00   0.0000000E+00   0.0000000E+00
   0.1292560E+01   0.1399397E+01  -0.0000000E+00   0.0000000E+00   0.0000000E+00   0.0000000E+00   0.0000000E+00
   0.1336310E+01   0.1357682E+01  -0.0000000E+00   0.0000000E+00   0.0000000E+00   0.0000000E+00   0.0000000E+00
   0.1378713E+01   0.1314600E+01  -0.0000000E+00   0.0000000E+00   0.0000000E+00   0.0000000E+00   0.0000000E+00
   0.1153686E+01   0.1515926E+01  -0.0000000E+00   0.0000000E+00   0.0000000E+00   0.0000000E+00   0.0000000E+00
   0.1201203E+01   0.1478559E+01  -0.0000000E+00   0.0000000E+00   0.0000000E+00   0.0000000E+00   0.0000000E+00
   0.1247510E+01   0.1439703E+01  -0.0000000E+00   0.0000000E+00   0.0000000E+00   0.0000000E+00   0.0000000E+00
   0.1004364E+01   0.1618727E+01  -0.0000000E+00   0.0000000E+00   0.0000000E+00   0.0000000E+00   0.0000000E+00
   0.1055218E+01   0.1586046E+01  -0.0000000E+00   0.0000000E+00   0.0000000E+00   0.0000000E+00   0.0000000E+00
   0.1105008E+01   0.1551767E+01  -0.0000000E+00   0.0000000E+00   0.0000000E+00   0.0000000E+00   0.0000000E+00
   0.8459470E+00   0.1706868E+01  -0.0000000E+00   0.0000000E+00   0.0000000E+00   0.0000000E+00   0.0000000E+00
   0.8996760E+00   0.1679169E+01  -0.0000000E+00   0.0000000E+00   0.0000000E+00   0.0000000E+00   0.0000000E+00
   0.9525000E+00   0.1649778E+01  -0.0000000E+00   0.0000000E+00   0.0000000E+00   0.0000000E+00   0.0000000E+00
   0.6798680E+00   0.1779552E+01  -0.0000000E+00   0.0000000E+00   0.0000000E+00   0.0000000E+00   0.0000000E+00
   0.7359870E+00   0.1757085E+01  -0.0000000E+00   0.0000000E+00   0.0000000E+00   0.0000000E+00   0.0000000E+00
   0.7913660E+00   0.1732849E+01  -0.0000000E+00   0.0000000E+00   0.0000000E+00   0.0000000E+00   0.0000000E+00
   0.5076330E+00   0.1836119E+01  -0.0000000E+00   0.0000000E+00   0.0000000E+00   0.0000000E+00   0.0000000E+00
   0.5656330E+00   0.1819089E+01  -0.0000000E+00   0.0000000E+00   0.0000000E+00   0.0000000E+00   0.0000000E+00
   0.6230640E+00   0.1800227E+01  -0.0000000E+00   0.0000000E+00   0.0000000E+00   0.0000000E+00   0.0000000E+00
   0.3308000E+00   0.1876059E+01  -0.0000000E+00   0.0000000E+00   0.0000000E+00   0.0000000E+00   0.0000000E+00
   0.3901570E+00   0.1864619E+01  -0.0000000E+00   0.0000000E+00   0.0000000E+00   0.0000000E+00   0.0000000E+00
   0.4491210E+00   0.1851301E+01  -0.0000000E+00   0.0000000E+00   0.0000000E+00   0.0000000E+00   0.0000000E+00
   0.1509710E+00   0.1899008E+01  -0.0000000E+00   0.0000000E+00   0.0000000E+00   0.0000000E+00   0.0000000E+00
   0.2111470E+00   0.1893262E+01  -0.0000000E+00   0.0000000E+00   0.0000000E+00   0.0000000E+00   0.0000000E+00
   0.2711100E+00   0.1885610E+01  -0.0000000E+00   0.0000000E+00   0.0000000E+00   0.0000000E+00   0.0000000E+00
  -0.3022500E-01   0.1904760E+01  -0.0000000E+00   0.0000000E+00   0.0000000E+00   0.0000000E+00   0.0000000E+00
   0.3022500E-01   0.1904760E+01  -0.0000000E+00   0.0000000E+00   0.0000000E+00   0.0000000E+00   0.0000000E+00
   0.9064400E-01   0.1902842E+01  -0.0000000E+00   0.0000000E+00   0.0000000E+00   0.0000000E+00   0.0000000E+00
  -0.2111470E+00   0.1893262E+01  -0.0000000E+00   0.0000000E+00   0.0000000E+00   0.0000000E+00   0.0000000E+00
  -0.1509710E+00   0.1899008E+01  -0.0000000E+00   0.0000000E+00   0.0000000E+00   0.0000000E+00   0.0000000E+00
  -0.9064400E-01   0.1902842E+01  -0.0000000E+00   0.0000000E+00   0.0000000E+00   0.0000000E+00   0.0000000E+00
  -0.3901570E+00   0.1864619E+01  -0.0000000E+00   0.0000000E+00   0.0000000E+00   0.0000000E+00   0.0000000E+00
  -0.3308000E+00   0.1876059E+01  -0.0000000E+00   0.0000000E+00   0.0000000E+00   0.0000000E+00   0.0000000E+00
  -0.2711100E+00   0.1885610E+01  -0.0000000E+00   0.0000000E+00   0.0000000E+00   0.0000000E+00   0.0000000E+00
  -0.5656330E+00   0.1819089E+01  -0.0000000E+00   0.0000000E+00   0.0000000E+00   0.0000000E+00   0.0000000E+00
  -0.5076330E+00   0.1836119E+01  -0.0000000E+00   0.0000000E+00   0.0000000E+00   0.0000000E+00   0.0000000E+00
  -0.4491210E+00   0.1851301E+01  -0.0000000E+00   0.0000000E+00   0.0000000E+00   0.0000000E+00   0.0000000E+00
  -0.7359870E+00   0.1757085E+01  -0.0000000E+00   0.0000000E+00   0.0000000E+00   0.0000000E+00   0.0000000E+00
  -0.6798680E+00   0.1779552E+01  -0.0000000E+00   0.0000000E+00   0.0000000E+00   0.0000000E+00   0.0000000E+00
  -0.6230640E+00   0.1800227E+01  -0.0000000E+00   0.0000000E+00   0.0000000E+00   0.0000000E+00   0.0000000E+00
  -0.8996760E+00   0.1679169E+01  -0.0000000E+00   0.0000000E+00   0.0000000E+00   0.0000000E+00   0.0000000E+00
  -0.8459470E+00   0.1706868E+01  -0.0000000E+00   0.0000000E+00   0.0000000E+00   0.0000000E+00   0.0000000E+00
  -0.7913660E+00   0.1732849E+01  -0.0000000E+00   0.0000000E+00   0.0000000E+00   0.0000000E+00   0.0000000E+00
  -0.1055218E+01   0.1586046E+01  -0.0000000E+00   0.0000000E+00   0.0000000E+00   0.0000000E+00   0.0000000E+00
  -0.1004364E+01   0.1618727E+01  -0.0000000E+00   0.0000000E+00   0.0000000E+00   0.0000000E+00   0.0000000E+00
  -0.9525000E+00   0.1649778E+01  -0.0000000E+00   0.0000000E+00   0.0000000E+00   0.0000000E+00   0.0000000E+00
  -0.1201203E+01   0.1478559E+01  -0.0000000E+00   0.0000000E+00   0.0000000E+00   0.0000000E+00   0.0000000E+00
  -0.1153686E+01   0.1515926E+01  -0.0000000E+00   0.0000000E+00   0.0000000E+00   0.0000000E+00   0.0000000E+00
  -0.1105008E+01   0.1551767E+01  -0.0000000E+00   0.0000000E+00   0.0000000E+00   0.0000000E+00   0.0000000E+00
  -0.1336310E+01   0.1357682E+01  -0.0000000E+00   0.0000000E+00   0.0000000E+00   0.0000000E+00   0.0000000E+00
  -0.1292560E+01   0.1399397E+01  -0.0000000E+00   0.0000000E+00   0.0000000E+00   0.0000000E+00   0.0000000E+00
  -0.1247510E+01   0.1439703E+01  -0.0000000E+00   0.0000000E+00   0.0000000E+00   0.0000000E+00   0.0000000E+00
  -0.1459315E+01   0.1224510E+01  -0.0000000E+00   0.0000000E+00   0.0000000E+00   0.0000000E+00   0.0000000E+00
  -0.1419729E+01   0.1270195E+01  -0.0000000E+00   0.0000000E+00   0.0000000E+00   0.0000000E+00   0.0000000E+00
  -0.1378713E+01   0.1314600E+01  -0.0000000E+00   0.0000000E+00   0.0000000E+00   0.0000000E+00   0.0000000E+00
  -0.1569104E+01   0.1080249E+01  -0.0000000E+00   0.0000000E+00   0.0000000E+00   0.0000000E+00   0.0000000E+00
  -0.1534040E+01   0.1129490E+01  -0.0000000E+00   0.0000000E+00   0.0000000E+00   0.0000000E+00   0.0000000E+00
  -0.1497431E+01   0.1177593E+01  -0.0000000E+00   0.0000000E+00   0.0000000E+00   0.0000000E+00   0.0000000E+00
  -0.1664683E+01   0.9262050E+00  -0.0000000E+00   0.0000000E+00   0.0000000E+00   0.0000000E+00   0.0000000E+00
  -0.1634458E+01   0.9785550E+00  -0.0000000E+00   0.0000000E+00   0.0000000E+00   0.0000000E+00   0.0000000E+00
  -0.1602588E+01   0.1029921E+01  -0.0000000E+00   0.0000000E+00   0.0000000E+00   0.0000000E+00   0.0000000E+00
  -0.1745187E+01   0.7637730E+00  -0.0000000E+00   0.0000000E+00   0.0000000E+00   0.0000000E+00   0.0000000E+00
  -0.1720075E+01   0.8187590E+00  -0.0000000E+00   0.0000000E+00   0.0000000E+00   0.0000000E+00   0.0000000E+00
  -0.1693232E+01   0.8729220E+00  -0.0000000E+00   0.0000000E+00   0.0000000E+00   0.0000000E+00   0.0000000E+00
  -0.1809886E+01   0.5944240E+00  -0.0000000E+00   0.0000000E+00   0.0000000E+00   0.0000000E+00   0.0000000E+00
  -0.1790114E+01   0.6515480E+00  -0.0000000E+00   0.0000000E+00   0.0000000E+00   0.0000000E+00   0.0000000E+00
  -0.1768541E+01   0.7080170E+00  -0.0000000E+00   0.0000000E+00   0.0000000E+00   0.0000000E+00   0.0000000E+00
  -0.1858194E+01   0.4196920E+00  -0.0000000E+00   0.0000000E+00   0.0000000E+00   0.0000000E+00   0.0000000E+00
  -0.1843942E+01   0.4784370E+00  -0.0000000E+00   0.0000000E+00   0.0000000E+00   0.0000000E+00   0.0000000E+00
  -0.1827834E+01   0.5367010E+00  -0.0000000E+00   0.0000000E+00   0.0000000E+00   0.0000000E+00   0.0000000E+00
  -0.1889674E+01   0.2411590E+00  -0.0000000E+00   0.0000000E+00   0.0000000E+00   0.0000000E+00   0.0000000E+00
  -0.1881071E+01   0.3009930E+00  -0.0000000E+00   0.0000000E+00   0.0000000E+00   0.0000000E+00   0.0000000E+00
  -0.1870574E+01   0.3605240E+00  -0.0000000E+00   0.0000000E+00   0.0000000E+00   0.0000000E+00   0.0000000E+00
  -0.1904041E+01   0.6044200E-01  -0.0000000E+00   0.0000000E+00   0.0000000E+00   0.0000000E+00   0.0000000E+00
  -0.1901165E+01   0.1208230E+00  -0.0000000E+00   0.0000000E+00   0.0000000E+00   0.0000000E+00   0.0000000E+00
  -0.1896374E+01   0.1810820E+00  -0.0000000E+00   0.0000000E+00   0.0000000E+00   0.0000000E+00   0.0000000E+00
  -0.1901165E+01  -0.1208230E+00  -0.0000000E+00   0.0000000E+00   0.0000000E+00   0.0000000E+00   0.0000000E+00
  -0.1904041E+01  -0.6044200E-01  -0.0000000E+00   0.0000000E+00   0.0000000E+00   0.0000000E+00   0.0000000E+00
  -0.1905000E+01   0.0000000E+00  -0.0000000E+00   0.0000000E+00   0.0000000E+00   0.0000000E+00   0.0000000E+00
  -0.1881071E+01  -0.3009930E+00  -0.0000000E+00   0.0000000E+00   0.0000000E+00   0.0000000E+00   0.0000000E+00
  -0.1889674E+01  -0.2411590E+00  -0.0000000E+00   0.0000000E+00   0.0000000E+00   0.0000000E+00   0.0000000E+00
  -0.1896374E+01  -0.1810820E+00  -0.0000000E+00   0.0000000E+00   0.0000000E+00   0.0000000E+00   0.0000000E+00
  -0.1843942E+01  -0.4784370E+00  -0.0000000E+00   0.0000000E+00   0.0000000E+00   0.0000000E+00   0.0000000E+00
  -0.1858194E+01  -0.4196920E+00  -0.0000000E+00   0.0000000E+00   0.0000000E+00   0.0000000E+00   0.0000000E+00
  -0.1870574E+01  -0.3605240E+00  -0.0000000E+00   0.0000000E+00   0.0000000E+00   0.0000000E+00   0.0000000E+00
  -0.1790114E+01  -0.6515480E+00  -0.0000000E+00   0.0000000E+00   0.0000000E+00   0.0000000E+00   0.0000000E+00
  -0.1809886E+01  -0.5944240E+00  -0.0000000E+00   0.0000000E+00   0.0000000E+00   0.0000000E+00   0.0000000E+00
  -0.1827834E+01  -0.5367010E+00  -0.0000000E+00   0.0000000E+00   0.0000000E+00   0.0000000E+00   0.0000000E+00
  -0.1720075E+01  -0.8187590E+00  -0.0000000E+00   0.0000000E+00   0.0000000E+00   0.0000000E+00   0.0000000E+00
  -0.1745187E+01  -0.7637730E+00  -0.0000000E+00   0.0000000E+00   0.0000000E+00   0.0000000E+00   0.0000000E+00
  -0.1768541E+01  -0.7080170E+00  -0.0000000E+00   0.0000000E+00   0.0000000E+00   0.0000000E+00   0.0000000E+00
  -0.1634458E+01  -0.9785550E+00  -0.0000000E+00   0.0000000E+00   0.0000000E+00   0.0000000E+00   0.0000000E+00
  -0.1664683E+01  -0.9262050E+00  -0.0000000E+00   0.0000000E+00   0.0000000E+00   0.0000000E+00   0.0000000E+00
  -0.1693232E+01  -0.8729220E+00  -0.0000000E+00   0.0000000E+00   0.0000000E+00   0.0000000E+00   0.0000000E+00
  -0.1534040E+01  -0.1129490E+01  -0.0000000E+00   0.0000000E+00   0.0000000E+00   0.0000000E+00   0.0000000E+00
  -0.1569104E+01  -0.1080249E+01  -0.0000000E+00   0.0000000E+00   0.0000000E+00   0.0000000E+00   0.0000000E+00
  -0.1602588E+01  -0.1029921E+01  -0.0000000E+00   0.0000000E+00   0.0000000E+00   0.0000000E+00   0.0000000E+00
  -0.1419729E+01  -0.1270195E+01  -0.0000000E+00   0.0000000E+00   0.0000000E+00   0.0000000E+00   0.0000000E+00
  -0.1459315E+01  -0.1224510E+01  -0.0000000E+00   0.0000000E+00   0.0000000E+00   0.0000000E+00   0.0000000E+00
  -0.1497431E+01  -0.1177593E+01  -0.0000000E+00   0.0000000E+00   0.0000000E+00   0.0000000E+00   0.0000000E+00
  -0.1292560E+01  -0.1399397E+01  -0.0000000E+00   0.0000000E+00   0.0000000E+00   0.0000000E+00   0.0000000E+00
  -0.1336310E+01  -0.1357682E+01  -0.0000000E+00   0.0000000E+00   0.0000000E+00   0.0000000E+00   0.0000000E+00
  -0.1378713E+01  -0.1314600E+01  -0.0000000E+00   0.0000000E+00   0.0000000E+00   0.0000000E+00   0.0000000E+00
  -0.1153686E+01  -0.1515926E+01  -0.0000000E+00   0.0000000E+00   0.0000000E+00   0.0000000E+00   0.0000000E+00
  -0.1201203E+01  -0.1478559E+01  -0.0000000E+00   0.0000000E+00   0.0000000E+00   0.0000000E+00   0.0000000E+00
  -0.1247510E+01  -0.1439703E+01  -0.0000000E+00   0.0000000E+00   0.0000000E+00   0.0000000E+00   0.0000000E+00
  -0.1004364E+01  -0.1618727E+01  -0.0000000E+00   0.0000000E+00   0.0000000E+00   0.0000000E+00   0.0000000E+00
  -0.1055218E+01  -0.1586046E+01  -0.0000000E+00   0.0000000E+00   0.0000000E+00   0.0000000E+00   0.0000000E+00
  -0.1105008E+01  -0.1551767E+01  -0.0000000E+00   0.0000000E+00   0.0000000E+00   0.0000000E+00   0.0000000E+00
  -0.8459470E+00  -0.1706868E+01  -0.0000000E+00   0.0000000E+00   0.0000000E+00   0.0000000E+00   0.0000000E+00
  -0.8996760E+00  -0.1679169E+01  -0.0000000E+00   0.0000000E+00   0.0000000E+00   0.0000000E+00   0.0000000E+00
  -0.9525000E+00  -0.1649778E+01  -0.0000000E+00   0.0000000E+00   0.0000000E+00   0.0000000E+00   0.0000000E+00
  -0.6798680E+00  -0.1779552E+01  -0.0000000E+00   0.0000000E+00   0.0000000E+00   0.0000000E+00   0.0000000E+00
  -0.7359870E+00  -0.1757085E+01  -0.0000000E+00   0.0000000E+00   0.0000000E+00   0.0000000E+00   0.0000000E+00
  -0.7913660E+00  -0.1732849E+01  -0.0000000E+00   0.0000000E+00   0.0000000E+00   0.0000000E+00   0.0000000E+00
  -0.5076330E+00  -0.1836119E+01  -0.0000000E+00   0.0000000E+00   0.0000000E+00   0.0000000E+00   0.0000000E+00
  -0.5656330E+00  -0.1819089E+01  -0.0000000E+00   0.0000000E+00   0.0000000E+00   0.0000000E+00   0.0000000E+00
  -0.6230640E+00  -0.1800227E+01  -0.0000000E+00   0.0000000E+00   0.0000000E+00   0.0000000E+00   0.0000000E+00
  -0.3308000E+00  -0.1876059E+01  -0.0000000E+00   0.0000000E+00   0.0000000E+00   0.0000000E+00   0.0000000E+00
  -0.3901570E+00  -0.1864619E+01  -0.0000000E+00   0.0000000E+00   0.0000000E+00   0.0000000E+00   0.0000000E+00
  -0.4491210E+00  -0.1851301E+01  -0.0000000E+00   0.0000000E+00   0.0000000E+00   0.0000000E+00   0.0000000E+00
  -0.1509710E+00  -0.1899008E+01  -0.0000000E+00   0.0000000E+00   0.0000000E+00   0.0000000E+00   0.0000000E+00
  -0.2111470E+00  -0.1893262E+01  -0.0000000E+00   0.0000000E+00   0.0000000E+00   0.0000000E+00   0.0000000E+00
  -0.2711100E+00  -0.1885610E+01  -0.0000000E+00   0.0000000E+00   0.0000000E+00   0.0000000E+00   0.0000000E+00
   0.3022500E-01  -0.1904760E+01  -0.0000000E+00   0.0000000E+00   0.0000000E+00   0.0000000E+00   0.0000000E+00
  -0.3022500E-01  -0.1904760E+01  -0.0000000E+00   0.0000000E+00   0.0000000E+00   0.0000000E+00   0.0000000E+00
  -0.9064400E-01  -0.1902842E+01  -0.0000000E+00   0.0000000E+00   0.0000000E+00   0.0000000E+00   0.0000000E+00
   0.2111470E+00  -0.1893262E+01  -0.0000000E+00   0.0000000E+00   0.0000000E+00   0.0000000E+00   0.0000000E+00
   0.1509710E+00  -0.1899008E+01  -0.0000000E+00   0.0000000E+00   0.0000000E+00   0.0000000E+00   0.0000000E+00
   0.9064400E-01  -0.1902842E+01  -0.0000000E+00   0.0000000E+00   0.0000000E+00   0.0000000E+00   0.0000000E+00
   0.3901570E+00  -0.1864619E+01  -0.0000000E+00   0.0000000E+00   0.0000000E+00   0.0000000E+00   0.0000000E+00
   0.3308000E+00  -0.1876059E+01  -0.0000000E+00   0.0000000E+00   0.0000000E+00   0.0000000E+00   0.0000000E+00
   0.2711100E+00  -0.1885610E+01  -0.0000000E+00   0.0000000E+00   0.0000000E+00   0.0000000E+00   0.0000000E+00
   0.5656330E+00  -0.1819089E+01  -0.0000000E+00   0.0000000E+00   0.0000000E+00   0.0000000E+00   0.0000000E+00
   0.5076330E+00  -0.1836119E+01  -0.0000000E+00   0.0000000E+00   0.0000000E+00   0.0000000E+00   0.0000000E+00
   0.4491210E+00  -0.1851301E+01  -0.0000000E+00   0.0000000E+00   0.0000000E+00   0.0000000E+00   0.0000000E+00
   0.7359870E+00  -0.1757085E+01  -0.0000000E+00   0.0000000E+00   0.0000000E+00   0.0000000E+00   0.0000000E+00
   0.6798680E+00  -0.1779552E+01  -0.0000000E+00   0.0000000E+00   0.0000000E+00   0.0000000E+00   0.0000000E+00
   0.6230640E+00  -0.1800227E+01  -0.0000000E+00   0.0000000E+00   0.0000000E+00   0.0000000E+00   0.0000000E+00
   0.8996760E+00  -0.1679169E+01  -0.0000000E+00   0.0000000E+00   0.0000000E+00   0.0000000E+00   0.0000000E+00
   0.8459470E+00  -0.1706868E+01  -0.0000000E+00   0.0000000E+00   0.0000000E+00   0.0000000E+00   0.0000000E+00
   0.7913660E+00  -0.1732849E+01  -0.0000000E+00   0.0000000E+00   0.0000000E+00   0.0000000E+00   0.0000000E+00
   0.1055218E+01  -0.1586046E+01  -0.0000000E+00   0.0000000E+00   0.0000000E+00   0.0000000E+00   0.0000000E+00
   0.1004364E+01  -0.1618727E+01  -0.0000000E+00   0.0000000E+00   0.0000000E+00   0.0000000E+00   0.0000000E+00
   0.9525000E+00  -0.1649778E+01  -0.0000000E+00   0.0000000E+00   0.0000000E+00   0.0000000E+00   0.0000000E+00
   0.1201203E+01  -0.1478559E+01  -0.0000000E+00   0.0000000E+00   0.0000000E+00   0.0000000E+00   0.0000000E+00
   0.1153686E+01  -0.1515926E+01  -0.0000000E+00   0.0000000E+00   0.0000000E+00   0.0000000E+00   0.0000000E+00
   0.1105008E+01  -0.1551767E+01  -0.0000000E+00   0.0000000E+00   0.0000000E+00   0.0000000E+00   0.0000000E+00
   0.1336310E+01  -0.1357682E+01  -0.0000000E+00   0.0000000E+00   0.0000000E+00   0.0000000E+00   0.0000000E+00
   0.1292560E+01  -0.1399397E+01  -0.0000000E+00   0.0000000E+00   0.0000000E+00   0.0000000E+00   0.0000000E+00
   0.1247510E+01  -0.1439703E+01  -0.0000000E+00   0.0000000E+00   0.0000000E+00   0.0000000E+00   0.0000000E+00
   0.1459315E+01  -0.1224510E+01  -0.0000000E+00   0.0000000E+00   0.0000000E+00   0.0000000E+00   0.0000000E+00
   0.1419729E+01  -0.1270195E+01  -0.0000000E+00   0.0000000E+00   0.0000000E+00   0.0000000E+00   0.0000000E+00
   0.1378713E+01  -0.1314600E+01  -0.0000000E+00   0.0000000E+00   0.0000000E+00   0.0000000E+00   0.0000000E+00
   0.1569104E+01  -0.1080249E+01  -0.0000000E+00   0.0000000E+00   0.0000000E+00   0.0000000E+00   0.0000000E+00
   0.1534040E+01  -0.1129490E+01  -0.0000000E+00   0.0000000E+00   0.0000000E+00   0.0000000E+00   0.0000000E+00
   0.1497431E+01  -0.1177593E+01  -0.0000000E+00   0.0000000E+00   0.0000000E+00   0.0000000E+00   0.0000000E+00
   0.1664683E+01  -0.9262050E+00  -0.0000000E+00   0.0000000E+00   0.0000000E+00   0.0000000E+00   0.0000000E+00
   0.1634458E+01  -0.9785550E+00  -0.0000000E+00   0.0000000E+00   0.0000000E+00   0.0000000E+00   0.0000000E+00
   0.1602588E+01  -0.1029921E+01  -0.0000000E+00   0.0000000E+00   0.0000000E+00   0.0000000E+00   0.0000000E+00
   0.1745187E+01  -0.7637730E+00  -0.0000000E+00   0.0000000E+00   0.0000000E+00   0.0000000E+00   0.0000000E+00
   0.1720075E+01  -0.8187590E+00  -0.0000000E+00   0.0000000E+00   0.0000000E+00   0.0000000E+00   0.0000000E+00
   0.1693232E+01  -0.8729220E+00  -0.0000000E+00   0.0000000E+00   0.0000000E+00   0.0000000E+00   0.0000000E+00
   0.1809886E+01  -0.5944240E+00  -0.0000000E+00   0.0000000E+00   0.0000000E+00   0.0000000E+00   0.0000000E+00
   0.1790114E+01  -0.6515480E+00  -0.0000000E+00   0.0000000E+00   0.0000000E+00   0.0000000E+00   0.0000000E+00
   0.1768541E+01  -0.7080170E+00  -0.0000000E+00   0.0000000E+00   0.0000000E+00   0.0000000E+00   0.0000000E+00
   0.1858194E+01  -0.4196920E+00  -0.0000000E+00   0.0000000E+00   0.0000000E+00   0.0000000E+00   0.0000000E+00
   0.1843942E+01  -0.4784370E+00  -0.0000000E+00   0.0000000E+00   0.0000000E+00   0.0000000E+00   0.0000000E+00
   0.1827834E+01  -0.5367010E+00  -0.0000000E+00   0.0000000E+00   0.0000000E+00   0.0000000E+00   0.0000000E+00
   0.1889674E+01  -0.2411590E+00  -0.0000000E+00   0.0000000E+00   0.0000000E+00   0.0000000E+00   0.0000000E+00
   0.1881071E+01  -0.3009930E+00  -0.0000000E+00   0.0000000E+00   0.0000000E+00   0.0000000E+00   0.0000000E+00
   0.1870574E+01  -0.3605240E+00  -0.0000000E+00   0.0000000E+00   0.0000000E+00   0.0000000E+00   0.0000000E+00
   0.1901165E+01  -0.1208230E+00  -0.0000000E+00   0.0000000E+00   0.0000000E+00   0.0000000E+00   0.0000000E+00
   0.1896374E+01  -0.1810820E+00  -0.0000000E+00   0.0000000E+00   0.0000000E+00   0.0000000E+00   0.0000000E+00
  -0.1336310E+01  -0.1357682E+01  -0.1219200E+01   0.0000000E+00   0.0000000E+00   0.0000000E+00   0.0000000E+00
  -0.1411771E+01  -0.1389984E+01  -0.1219200E+01   0.0000000E+00   0.0000000E+00   0.0000000E+00   0.0000000E+00
  -0.1378713E+01  -0.1314600E+01  -0.1219200E+01   0.0000000E+00   0.0000000E+00   0.0000000E+00   0.0000000E+00
  -0.1454317E+01  -0.1345406E+01  -0.1219200E+01   0.0000000E+00   0.0000000E+00   0.0000000E+00   0.0000000E+00
  -0.1419729E+01  -0.1270195E+01  -0.1219200E+01   0.0000000E+00   0.0000000E+00   0.0000000E+00   0.0000000E+00
  -0.1495455E+01  -0.1299526E+01  -0.1219200E+01   0.0000000E+00   0.0000000E+00   0.0000000E+00   0.0000000E+00
  -0.1459315E+01  -0.1224510E+01  -0.1219200E+01   0.0000000E+00   0.0000000E+00   0.0000000E+00   0.0000000E+00
  -0.1535147E+01  -0.1252389E+01  -0.1219200E+01   0.0000000E+00   0.0000000E+00   0.0000000E+00   0.0000000E+00
  -0.1497431E+01  -0.1177593E+01  -0.1219200E+01   0.0000000E+00   0.0000000E+00   0.0000000E+00   0.0000000E+00
  -0.1573353E+01  -0.1204040E+01  -0.1219200E+01   0.0000000E+00   0.0000000E+00   0.0000000E+00   0.0000000E+00
  -0.1534040E+01  -0.1129490E+01  -0.1219200E+01   0.0000000E+00   0.0000000E+00   0.0000000E+00   0.0000000E+00
  -0.1610038E+01  -0.1154527E+01  -0.1219200E+01   0.0000000E+00   0.0000000E+00   0.0000000E+00   0.0000000E+00
  -0.1569104E+01  -0.1080249E+01  -0.1219200E+01   0.0000000E+00   0.0000000E+00   0.0000000E+00   0.0000000E+00
  -0.1645165E+01  -0.1103896E+01  -0.1219200E+01   0.0000000E+00   0.0000000E+00   0.0000000E+00   0.0000000E+00
  -0.1602588E+01  -0.1029921E+01  -0.1219200E+01   0.0000000E+00   0.0000000E+00   0.0000000E+00   0.0000000E+00
  -0.1678700E+01  -0.1052198E+01  -0.1219200E+01   0.0000000E+00   0.0000000E+00   0.0000000E+00   0.0000000E+00
  -0.1634458E+01  -0.9785550E+00  -0.1219200E+01   0.0000000E+00   0.0000000E+00   0.0000000E+00   0.0000000E+00
  -0.1710611E+01  -0.9994810E+00  -0.1219200E+01   0.0000000E+00   0.0000000E+00   0.0000000E+00   0.0000000E+00
  -0.1664683E+01  -0.9262050E+00  -0.1219200E+01   0.0000000E+00   0.0000000E+00   0.0000000E+00   0.0000000E+00
  -0.1740867E+01  -0.9457980E+00  -0.1219200E+01   0.0000000E+00   0.0000000E+00   0.0000000E+00   0.0000000E+00
  -0.1693232E+01  -0.8729220E+00  -0.1219200E+01   0.0000000E+00   0.0000000E+00   0.0000000E+00   0.0000000E+00
  -0.1769439E+01  -0.8912000E+00  -0.1219200E+01   0.0000000E+00   0.0000000E+00   0.0000000E+00   0.0000000E+00
  -0.1720075E+01  -0.8187590E+00  -0.1219200E+01   0.0000000E+00   0.0000000E+00   0.0000000E+00   0.0000000E+00
  -0.1796300E+01  -0.8357400E+00  -0.1219200E+01   0.0000000E+00   0.0000000E+00   0.0000000E+00   0.0000000E+00
  -0.1745187E+01  -0.7637730E+00  -0.1219200E+01   0.0000000E+00   0.0000000E+00   0.0000000E+00   0.0000000E+00
  -0.1821422E+01  -0.7794710E+00  -0.1219200E+01   0.0000000E+00   0.0000000E+00   0.0000000E+00   0.0000000E+00
  -0.1768541E+01  -0.7080170E+00  -0.1219200E+01   0.0000000E+00   0.0000000E+00   0.0000000E+00   0.0000000E+00
  -0.1844783E+01  -0.7224480E+00  -0.1219200E+01   0.0000000E+00   0.0000000E+00   0.0000000E+00   0.0000000E+00
  -0.1790114E+01  -0.6515480E+00  -0.1219200E+01   0.0000000E+00   0.0000000E+00   0.0000000E+00   0.0000000E+00
  -0.1866358E+01  -0.6647260E+00  -0.1219200E+01   0.0000000E+00   0.0000000E+00   0.0000000E+00   0.0000000E+00
  -0.1809886E+01  -0.5944240E+00  -0.1219200E+01   0.0000000E+00   0.0000000E+00   0.0000000E+00   0.0000000E+00
  -0.1886128E+01  -0.6063610E+00  -0.1219200E+01   0.0000000E+00   0.0000000E+00   0.0000000E+00   0.0000000E+00
  -0.1827834E+01  -0.5367010E+00  -0.1219200E+01   0.0000000E+00   0.0000000E+00   0.0000000E+00   0.0000000E+00
  -0.1904074E+01  -0.5474090E+00  -0.1219200E+01   0.0000000E+00   0.0000000E+00   0.0000000E+00   0.0000000E+00
  -0.1843942E+01  -0.4784370E+00  -0.1219200E+01   0.0000000E+00   0.0000000E+00   0.0000000E+00   0.0000000E+00
  -0.1920177E+01  -0.4879280E+00  -0.1219200E+01   0.0000000E+00   0.0000000E+00   0.0000000E+00   0.0000000E+00
  -0.1858194E+01  -0.4196920E+00  -0.1219200E+01   0.0000000E+00   0.0000000E+00   0.0000000E+00   0.0000000E+00
  -0.1934423E+01  -0.4279750E+00  -0.1219200E+01   0.0000000E+00   0.0000000E+00   0.0000000E+00   0.0000000E+00
  -0.1870574E+01  -0.3605240E+00  -0.1219200E+01   0.0000000E+00   0.0000000E+00   0.0000000E+00   0.0000000E+00
  -0.1946797E+01  -0.3676070E+00  -0.1219200E+01   0.0000000E+00   0.0000000E+00   0.0000000E+00   0.0000000E+00
  -0.1881071E+01  -0.3009930E+00  -0.1219200E+01   0.0000000E+00   0.0000000E+00   0.0000000E+00   0.0000000E+00
  -0.1957288E+01  -0.3068840E+00  -0.1219200E+01   0.0000000E+00   0.0000000E+00   0.0000000E+00   0.0000000E+00
  -0.1889674E+01  -0.2411590E+00  -0.1219200E+01   0.0000000E+00   0.0000000E+00   0.0000000E+00   0.0000000E+00
  -0.1965885E+01  -0.2458640E+00  -0.1219200E+01   0.0000000E+00   0.0000000E+00   0.0000000E+00   0.0000000E+00
  -0.1896374E+01  -0.1810820E+00  -0.1219200E+01   0.0000000E+00   0.0000000E+00   0.0000000E+00   0.0000000E+00
  -0.1972580E+01  -0.1846070E+00  -0.1219200E+01   0.0000000E+00   0.0000000E+00   0.0000000E+00   0.0000000E+00
  -0.1901165E+01  -0.1208230E+00  -0.1219200E+01   0.0000000E+00   0.0000000E+00   0.0000000E+00   0.0000000E+00
  -0.1977368E+01  -0.1231700E+00  -0.1219200E+01   0.0000000E+00   0.0000000E+00   0.0000000E+00   0.0000000E+00
  -0.1904041E+01  -0.6044200E-01  -0.1219200E+01   0.0000000E+00   0.0000000E+00   0.0000000E+00   0.0000000E+00
  -0.1980242E+01  -0.6161500E-01  -0.1219200E+01   0.0000000E+00   0.0000000E+00   0.0000000E+00   0.0000000E+00
  -0.1905000E+01   0.0000000E+00  -0.1219200E+01   0.0000000E+00   0.0000000E+00   0.0000000E+00   0.0000000E+00
  -0.1981200E+01   0.0000000E+00  -0.1219200E+01   0.0000000E+00   0.0000000E+00   0.0000000E+00   0.0000000E+00
  -0.1904041E+01   0.6044200E-01  -0.1219200E+01   0.0000000E+00   0.0000000E+00   0.0000000E+00   0.0000000E+00
  -0.1980242E+01   0.6161500E-01  -0.1219200E+01   0.0000000E+00   0.0000000E+00   0.0000000E+00   0.0000000E+00
  -0.1901165E+01   0.1208230E+00  -0.1219200E+01   0.0000000E+00   0.0000000E+00   0.0000000E+00   0.0000000E+00
  -0.1977368E+01   0.1231700E+00  -0.1219200E+01   0.0000000E+00   0.0000000E+00   0.0000000E+00   0.0000000E+00
  -0.1896374E+01   0.1810820E+00  -0.1219200E+01   0.0000000E+00   0.0000000E+00   0.0000000E+00   0.0000000E+00
  -0.1972580E+01   0.1846070E+00  -0.1219200E+01   0.0000000E+00   0.0000000E+00   0.0000000E+00   0.0000000E+00
  -0.1889674E+01   0.2411590E+00  -0.1219200E+01   0.0000000E+00   0.0000000E+00   0.0000000E+00   0.0000000E+00
  -0.1965885E+01   0.2458640E+00  -0.1219200E+01   0.0000000E+00   0.0000000E+00   0.0000000E+00   0.0000000E+00
  -0.1881071E+01   0.3009930E+00  -0.1219200E+01   0.0000000E+00   0.0000000E+00   0.0000000E+00   0.0000000E+00
  -0.1957288E+01   0.3068840E+00  -0.1219200E+01   0.0000000E+00   0.0000000E+00   0.0000000E+00   0.0000000E+00
  -0.1870574E+01   0.3605240E+00  -0.1219200E+01   0.0000000E+00   0.0000000E+00   0.0000000E+00   0.0000000E+00
  -0.1946797E+01   0.3676070E+00  -0.1219200E+01   0.0000000E+00   0.0000000E+00   0.0000000E+00   0.0000000E+00
  -0.1858194E+01   0.4196920E+00  -0.1219200E+01   0.0000000E+00   0.0000000E+00   0.0000000E+00   0.0000000E+00