 VARIABLES="Time (s)"
"AddedMass    1" "IRF    1"
"AddedMass    2" "IRF    2"
"AddedMass    3" "IRF    3"
"AddedMass    4" "IRF    4"
"AddedMass    5" "IRF    5"
"AddedMass    6" "IRF    6"
Zone t="DoF    1",I=   100,F=POINT
  0.1000000E+00  0.6708975E+04 -0.2619769E+02 -0.1057916E+02  0.4079041E+00  0.3216119E+01  0.1043024E+01  0.7179228E+02 -0.2778227E+01  0.4567705E+05 -0.1869608E+03 -0.3777452E-01 -0.3058419E-02
  0.2000000E+00  0.6708975E+04 -0.2478104E+02 -0.1057916E+02  0.3891899E+00  0.3216119E+01  0.1012498E+01  0.7179228E+02 -0.2650820E+01  0.4567705E+05 -0.1769544E+03 -0.3777452E-01 -0.2972796E-02
  0.3000000E+00  0.6708975E+04 -0.2247560E+02 -0.1057916E+02  0.3586685E+00  0.3216119E+01  0.9624666E+00  0.7179228E+02 -0.2443028E+01  0.4567705E+05 -0.1606680E+03 -0.3777452E-01 -0.2832377E-02
  0.4000000E+00  0.6708975E+04 -0.1936274E+02 -0.1057916E+02  0.3173199E+00  0.3216119E+01  0.8941681E+00  0.7179228E+02 -0.2161521E+01  0.4567705E+05 -0.1386734E+03 -0.3777452E-01 -0.2640531E-02
  0.5000000E+00  0.6708975E+04 -0.1555233E+02 -0.1057916E+02  0.2664700E+00  0.3216119E+01  0.8092900E+00  0.7179228E+02 -0.1815324E+01  0.4567705E+05 -0.1117428E+03 -0.3777452E-01 -0.2401839E-02
  0.6000000E+00  0.6708975E+04 -0.1117885E+02 -0.1057916E+02  0.2077469E+00  0.3216119E+01  0.7099187E+00  0.7179228E+02 -0.1415516E+01  0.4567705E+05 -0.8082137E+02 -0.3777452E-01 -0.2121974E-02
  0.7000000E+00  0.6708975E+04 -0.6396593E+01 -0.1057916E+02  0.1430257E+00  0.3216119E+01  0.5984806E+00  0.7179228E+02 -0.9748629E+00  0.4567705E+05 -0.4699393E+02 -0.3777452E-01 -0.1807544E-02
  0.8000000E+00  0.6708975E+04 -0.1374234E+01 -0.1057916E+02  0.7436746E-01  0.3216119E+01  0.4776759E+00  0.7179228E+02 -0.5073900E+00  0.4567705E+05 -0.1144670E+02 -0.3777452E-01 -0.1465911E-02
  0.9000000E+00  0.6708975E+04  0.3711129E+01 -0.1057916E+02  0.3950085E-02  0.3216119E+01  0.3504018E+00  0.7179228E+02 -0.2792282E-01  0.4567705E+05  0.2457446E+02 -0.3777452E-01 -0.1104995E-02
  0.1000000E+01  0.6708975E+04  0.8680245E+01 -0.1057916E+02 -0.6600317E-01  0.3216119E+01  0.2196739E+00  0.7179228E+02  0.4484059E+00  0.4567705E+05  0.5980791E+02 -0.3777452E-01 -0.7330572E-03
  0.1100000E+01  0.6708975E+04  0.1335804E+02 -0.1057916E+02 -0.1332972E+00  0.3216119E+01  0.8854257E-01  0.7179228E+02  0.9066539E+00  0.4567705E+05  0.9302066E+02 -0.3777452E-01 -0.3584804E-03
  0.1200000E+01  0.6708975E+04  0.1757976E+02 -0.1057916E+02 -0.1958366E+00  0.3216119E+01 -0.3998887E-01  0.7179228E+02  0.1332558E+01  0.4567705E+05  0.1230515E+03 -0.3777452E-01  0.1044770E-04
  0.1300000E+01  0.6708975E+04  0.2119679E+02 -0.1057916E+02 -0.2516943E+00  0.3216119E+01 -0.1630447E+00  0.7179228E+02  0.1712997E+01  0.4567705E+05  0.1488518E+03 -0.3777452E-01  0.3657560E-03
  0.1400000E+01  0.6708975E+04  0.2408187E+02 -0.1057916E+02 -0.2991733E+00  0.3216119E+01 -0.2779525E+00  0.7179228E+02  0.2036421E+01  0.4567705E+05  0.1695221E+03 -0.3777452E-01  0.6999886E-03
  0.1500000E+01  0.6708975E+04  0.2613352E+02 -0.1057916E+02 -0.3368617E+00  0.3216119E+01 -0.3823117E+00  0.7179228E+02  0.2293213E+01  0.4567705E+05  0.1843433E+03 -0.3777452E-01  0.1006396E-02
  0.1600000E+01  0.6708975E+04  0.2727959E+02 -0.1057916E+02 -0.3636762E+00  0.3216119E+01 -0.4740533E+00  0.7179228E+02  0.2475997E+01  0.4567705E+05  0.1928019E+03 -0.3777452E-01  0.1279093E-02
  0.1700000E+01  0.6708975E+04  0.2747976E+02 -0.1057916E+02 -0.3788956E+00  0.3216119E+01 -0.5514891E+00  0.7179228E+02  0.2579859E+01  0.4567705E+05  0.1946069E+03 -0.3777452E-01  0.1513198E-02
  0.1800000E+01  0.6708975E+04  0.2672683E+02 -0.1057916E+02 -0.3821813E+00  0.3216119E+01 -0.6133490E+00  0.7179228E+02  0.2602489E+01  0.4567705E+05  0.1897000E+03 -0.3777452E-01  0.1704941E-02
  0.1900000E+01  0.6708975E+04  0.2504701E+02 -0.1057916E+02 -0.3735855E+00  0.3216119E+01 -0.6588062E+00  0.7179228E+02  0.2544235E+01  0.4567705E+05  0.1782569E+03 -0.3777452E-01  0.1851730E-02
  0.2000000E+01  0.6708975E+04  0.2249880E+02 -0.1057916E+02 -0.3535451E+00  0.3216119E+01 -0.6874875E+00  0.7179228E+02  0.2408067E+01  0.4567705E+05  0.1606806E+03 -0.3777452E-01  0.1952194E-02
  0.2100000E+01  0.6708975E+04  0.1917095E+02 -0.1057916E+02 -0.3228637E+00  0.3216119E+01 -0.6994728E+00  0.7179228E+02  0.2199447E+01  0.4567705E+05  0.1375862E+03 -0.3777452E-01  0.2006182E-02
  0.2200000E+01  0.6708975E+04  0.1517921E+02 -0.1057916E+02 -0.2826814E+00  0.3216119E+01 -0.6952779E+00  0.7179228E+02  0.1926130E+01  0.4567705E+05  0.1097793E+03 -0.3777452E-01  0.2014732E-02
  0.2300000E+01  0.6708975E+04  0.1066219E+02 -0.1057916E+02 -0.2344329E+00  0.3216119E+01 -0.6758291E+00  0.7179228E+02  0.1597875E+01  0.4567705E+05  0.7822665E+02 -0.3777452E-01  0.1980005E-02
  0.2400000E+01  0.6708975E+04  0.5776436E+01 -0.1057916E+02 -0.1797966E+00  0.3216119E+01 -0.6424222E+00  0.7179228E+02  0.1226101E+01  0.4567705E+05  0.4402174E+02 -0.3777452E-01  0.1905188E-02
  0.2500000E+01  0.6708975E+04  0.6909125E+00 -0.1057916E+02 -0.1206363E+00  0.3216119E+01 -0.5966756E+00  0.7179228E+02  0.8234904E+00  0.4567705E+05  0.8346653E+01 -0.3777452E-01  0.1794375E-02
  0.2600000E+01  0.6708975E+04 -0.4419042E+01 -0.1057916E+02 -0.5893633E-01  0.3216119E+01 -0.5404720E+00  0.7179228E+02  0.4035449E+00  0.4567705E+05 -0.2757041E+02 -0.3777452E-01  0.1652416E-02
  0.2700000E+01  0.6708975E+04 -0.9377783E+01 -0.1057916E+02  0.3265501E-02  0.3216119E+01 -0.4758961E+00  0.7179228E+02 -0.1986746E-01  0.4567705E+05 -0.6249753E+02 -0.3777452E-01  0.1484761E-02
  0.2800000E+01  0.6708975E+04 -0.1401561E+02 -0.1057916E+02  0.6394736E-01  0.3216119E+01 -0.4051662E+00  0.7179228E+02 -0.4329856E+00  0.4567705E+05 -0.9524277E+02 -0.3777452E-01  0.1297277E-02
  0.2900000E+01  0.6708975E+04 -0.1817461E+02 -0.1057916E+02  0.1211703E+00  0.3216119E+01 -0.3305656E+00  0.7179228E+02 -0.8226125E+00  0.4567705E+05 -0.1246953E+03 -0.3777452E-01  0.1096071E-02
  0.3000000E+01  0.6708975E+04 -0.2171414E+02 -0.1057916E+02  0.1731417E+00  0.3216119E+01 -0.2543734E+00  0.7179228E+02 -0.1176544E+01  0.4567705E+05 -0.1498635E+03 -0.3777452E-01  0.8873076E-03
  0.3100000E+01  0.6708975E+04 -0.2451570E+02 -0.1057916E+02  0.2182740E+00  0.3216119E+01 -0.1787968E+00  0.7179228E+02 -0.1483973E+01  0.4567705E+05 -0.1699095E+03 -0.3777452E-01  0.6770265E-03
  0.3200000E+01  0.6708975E+04 -0.2648689E+02 -0.1057916E+02  0.2552343E+00  0.3216119E+01 -0.1059094E+00  0.7179228E+02 -0.1735821E+01  0.4567705E+05 -0.1841771E+03 -0.3777452E-01  0.4709762E-03
  0.3300000E+01  0.6708975E+04 -0.2756459E+02 -0.1057916E+02  0.2829857E+00  0.3216119E+01 -0.3759447E-01  0.7179228E+02 -0.1925026E+01  0.4567705E+05 -0.1922139E+03 -0.3777452E-01  0.2744601E-03
  0.3400000E+01  0.6708975E+04 -0.2771690E+02 -0.1057916E+02  0.3008174E+00  0.3216119E+01  0.2450401E-01  0.7179228E+02 -0.2046742E+01  0.4567705E+05 -0.1937855E+03 -0.3777452E-01  0.9219852E-04
  0.3500000E+01  0.6708975E+04 -0.2694413E+02 -0.1057916E+02  0.3083635E+00  0.3216119E+01  0.7901933E-01  0.7179228E+02 -0.2098470E+01  0.4567705E+05 -0.1888823E+03 -0.3777452E-01 -0.7177966E-04
  0.3600000E+01  0.6708975E+04 -0.2527856E+02 -0.1057916E+02  0.3056094E+00  0.3216119E+01  0.1248936E+00  0.7179228E+02 -0.2080103E+01  0.4567705E+05 -0.1777185E+03 -0.3777452E-01 -0.2142269E-03
  0.3700000E+01  0.6708975E+04 -0.2278311E+02 -0.1057916E+02  0.2928869E+00  0.3216119E+01  0.1613948E+00  0.7179228E+02 -0.1993889E+01  0.4567705E+05 -0.1607228E+03 -0.3777452E-01 -0.3327352E-03
  0.3800000E+01  0.6708975E+04 -0.1954889E+02 -0.1057916E+02  0.2708566E+00  0.3216119E+01  0.1881249E+00  0.7179228E+02 -0.1844314E+01  0.4567705E+05 -0.1385218E+03 -0.3777452E-01 -0.4257693E-03
  0.3900000E+01  0.6708975E+04 -0.1569184E+02 -0.1057916E+02  0.2404795E+00  0.3216119E+01  0.2050170E+00  0.7179228E+02 -0.1637911E+01  0.4567705E+05 -0.1119166E+03 -0.3777452E-01 -0.4926681E-03
  0.4000000E+01  0.6708975E+04 -0.1134851E+02 -0.1057916E+02  0.2029792E+00  0.3216119E+01  0.2123215E+00  0.7179228E+02 -0.1382996E+01  0.4567705E+05 -0.8185350E+02 -0.3777452E-01 -0.5336215E-03
  0.4100000E+01  0.6708975E+04 -0.6671066E+01 -0.1057916E+02  0.1597948E+00  0.3216119E+01  0.2105825E+00  0.7179228E+02 -0.1089358E+01  0.4567705E+05 -0.4938963E+02 -0.3777452E-01 -0.5496194E-03
  0.4200000E+01  0.6708975E+04 -0.1821856E+01 -0.1057916E+02  0.1125278E+00  0.3216119E+01  0.2006066E+00  0.7179228E+02 -0.7678879E+00  0.4567705E+05 -0.1565484E+02 -0.3777452E-01 -0.5423798E-03
  0.4300000E+01  0.6708975E+04  0.3032283E+01 -0.1057916E+02  0.6288469E-01  0.3216119E+01  0.1834228E+00  0.7179228E+02 -0.4301936E+00  0.4567705E+05  0.1818785E+02 -0.3777452E-01 -0.5142543E-03
  0.4400000E+01  0.6708975E+04  0.7726015E+01 -0.1057916E+02  0.1261493E-01  0.3216119E+01  0.1602384E+00  0.7179228E+02 -0.8817729E-01  0.4567705E+05  0.5098403E+02 -0.3777452E-01 -0.4681186E-03
  0.4500000E+01  0.6708975E+04  0.1210121E+02 -0.1057916E+02 -0.3654943E-01  0.3216119E+01  0.1323901E+00  0.7179228E+02  0.2463759E+00  0.4567705E+05  0.8162771E+02 -0.3777452E-01 -0.4072507E-03
  0.4600000E+01  0.6708975E+04  0.1601243E+02 -0.1057916E+02 -0.8295332E-01  0.3216119E+01  0.1012919E+00  0.7179228E+02  0.5622032E+00  0.4567705E+05  0.1090996E+03 -0.3777452E-01 -0.3352026E-03
  0.4700000E+01  0.6708975E+04  0.1933190E+02 -0.1057916E+02 -0.1250751E+00  0.3216119E+01  0.6838374E-01  0.7179228E+02  0.8489483E+00  0.4567705E+05  0.1325023E+03 -0.3777452E-01 -0.2556645E-03
  0.4800000E+01  0.6708975E+04  0.2195376E+02 -0.1057916E+02 -0.1615754E+00  0.3216119E+01  0.3508206E-01  0.7179228E+02  0.1097494E+01  0.4567705E+05  0.1510895E+03 -0.3777452E-01 -0.1723375E-03
  0.4900000E+01  0.6708975E+04  0.2379764E+02 -0.1057916E+02 -0.1913417E+00  0.3216119E+01  0.2730631E-02  0.7179228E+02  0.1300264E+01  0.4567705E+05  0.1642918E+03 -0.3777452E-01 -0.8880417E-04
  0.5000000E+01  0.6708975E+04  0.2481113E+02 -0.1057916E+02 -0.2135216E+00  0.3216119E+01 -0.2744172E-01  0.7179228E+02  0.1451452E+01  0.4567705E+05  0.1717335E+03 -0.3777452E-01 -0.8414654E-05
  0.5100000E+01  0.6708975E+04  0.2497134E+02 -0.1057916E+02 -0.2275475E+00  0.3216119E+01 -0.5435863E-01  0.7179228E+02  0.1547189E+01  0.4567705E+05  0.1732446E+03 -0.3777452E-01  0.6581705E-04
  0.5200000E+01  0.6708975E+04  0.2428533E+02 -0.1057916E+02 -0.2331505E+00  0.3216119E+01 -0.7712685E-01  0.7179228E+02  0.1585635E+01  0.4567705E+05  0.1688633E+03 -0.3777452E-01  0.1313004E-03
  0.5300000E+01  0.6708975E+04  0.2278958E+02 -0.1057916E+02 -0.2303635E+00  0.3216119E+01 -0.9505891E-01  0.7179228E+02  0.1567006E+01  0.4567705E+05  0.1588331E+03 -0.3777452E-01  0.1859351E-03
  0.5400000E+01  0.6708975E+04  0.2054828E+02 -0.1057916E+02 -0.2195139E+00  0.3216119E+01 -0.1076883E+00  0.7179228E+02  0.1493520E+01  0.4567705E+05  0.1435909E+03 -0.3777452E-01  0.2281609E-03
  0.5500000E+01  0.6708975E+04  0.1765077E+02 -0.1057916E+02 -0.2012060E+00  0.3216119E+01 -0.1147756E+00  0.7179228E+02  0.1369280E+01  0.4567705E+05  0.1237496E+03 -0.3777452E-01  0.2569845E-03
  0.5600000E+01  0.6708975E+04  0.1420805E+02 -0.1057916E+02 -0.1762929E+00  0.3216119E+01 -0.1163065E+00  0.7179228E+02  0.1200081E+01  0.4567705E+05  0.1000741E+03 -0.3777452E-01  0.2719845E-03
  0.5700000E+01  0.6708975E+04  0.1034855E+02 -0.1057916E+02 -0.1458417E+00  0.3216119E+01 -0.1124823E+00  0.7179228E+02  0.9931747E+00  0.4567705E+05  0.7345176E+02 -0.3777452E-01  0.2732994E-03
  0.5800000E+01  0.6708975E+04  0.6213473E+01 -0.1057916E+02 -0.1110908E+00  0.3216119E+01 -0.1037019E+00  0.7179228E+02  0.7569800E+00  0.4567705E+05  0.4486037E+02 -0.3777452E-01  0.2615909E-03
  0.5900000E+01  0.6708975E+04  0.1951479E+01 -0.1057916E+02 -0.7340162E-01  0.3216119E+01 -0.9053934E-01  0.7179228E+02  0.5007544E+00  0.4567705E+05  0.1533135E+02 -0.3777452E-01  0.2379973E-03
  0.6000000E+01  0.6708975E+04 -0.2286606E+01 -0.1057916E+02 -0.3420757E-01  0.3216119E+01 -0.7371337E-01  0.7179228E+02  0.2342448E+00  0.4567705E+05 -0.1408735E+02 -0.3777452E-01  0.2040628E-03
  0.6100000E+01  0.6708975E+04 -0.6353184E+01 -0.1057916E+02  0.5038718E-02  0.3216119E+01 -0.5405551E-01  0.7179228E+02 -0.3266866E-01  0.4567705E+05 -0.4236850E+02 -0.3777452E-01  0.1616642E-03
  0.6200000E+01  0.6708975E+04 -0.1010908E+02 -0.1057916E+02  0.4291802E-01  0.3216119E+01 -0.3247328E-01  0.7179228E+02 -0.2903319E+00  0.4567705E+05 -0.6854193E+02 -0.3777452E-01  0.1129232E-03
  0.6300000E+01  0.6708975E+04 -0.1342836E+02 -0.1057916E+02  0.7809475E-01  0.3216119E+01 -0.9912916E-02  0.7179228E+02 -0.5296586E+00  0.4567705E+05 -0.9172803E+02 -0.3777452E-01  0.6011375E-04
  0.6400000E+01  0.6708975E+04 -0.1620266E+02 -0.1057916E+02  0.1093636E+00  0.3216119E+01  0.1267799E-01  0.7179228E+02 -0.7424467E+00  0.4567705E+05 -0.1111682E+03 -0.3777452E-01  0.5570400E-05
  0.6500000E+01  0.6708975E+04 -0.1834478E+02 -0.1057916E+02  0.1356899E+00  0.3216119E+01  0.3438687E-01  0.7179228E+02 -0.9216547E+00  0.4567705E+05 -0.1262498E+03 -0.3777452E-01 -0.4840454E-04
  0.6600000E+01  0.6708975E+04 -0.1979147E+02 -0.1057916E+02  0.1562437E+00  0.3216119E+01  0.5436939E-01  0.7179228E+02 -0.1061631E+01  0.4567705E+05 -0.1365258E+03 -0.3777452E-01 -0.9962681E-04
  0.6700000E+01  0.6708975E+04 -0.2050530E+02 -0.1057916E+02  0.1704247E+00  0.3216119E+01  0.7187958E-01  0.7179228E+02 -0.1158287E+01  0.4567705E+05 -0.1417283E+03 -0.3777452E-01 -0.1461102E-03
  0.6800000E+01  0.6708975E+04 -0.2047566E+02 -0.1057916E+02  0.1778800E+00  0.3216119E+01  0.8629432E-01  0.7179228E+02 -0.1209215E+01  0.4567705E+05 -0.1417752E+03 -0.3777452E-01 -0.1861335E-03
  0.6900000E+01  0.6708975E+04 -0.1971868E+02 -0.1057916E+02  0.1785108E+00  0.3216119E+01  0.9713353E-01  0.7179228E+02 -0.1213735E+01  0.4567705E+05 -0.1367705E+03 -0.3777452E-01 -0.2182974E-03
  0.7000000E+01  0.6708975E+04 -0.1827624E+02 -0.1057916E+02  0.1724708E+00  0.3216119E+01  0.1040731E+00  0.7179228E+02 -0.1172887E+01  0.4567705E+05 -0.1269972E+03 -0.3777452E-01 -0.2415654E-03
  0.7100000E+01  0.6708975E+04 -0.1621408E+02 -0.1057916E+02  0.1601551E+00  0.3216119E+01  0.1069525E+00  0.7179228E+02 -0.1089349E+01  0.4567705E+05 -0.1129043E+03 -0.3777452E-01 -0.2552904E-03
  0.7200000E+01  0.6708975E+04 -0.1361894E+02 -0.1057916E+02  0.1421805E+00  0.3216119E+01  0.1057755E+00  0.7179228E+02 -0.9673102E+00  0.4567705E+05 -0.9508819E+02 -0.3777452E-01 -0.2592254E-03
  0.7300000E+01  0.6708975E+04 -0.1059528E+02 -0.1057916E+02  0.1193581E+00  0.3216119E+01  0.1007039E+00  0.7179228E+02 -0.8122812E+00  0.4567705E+05 -0.7426846E+02 -0.3777452E-01 -0.2535178E-03
  0.7400000E+01  0.6708975E+04 -0.7261009E+01 -0.1057916E+02  0.9265895E-01  0.3216119E+01  0.9204743E-01  0.7179228E+02 -0.6308612E+00  0.4567705E+05 -0.5125971E+02 -0.3777452E-01 -0.2386901E-03
  0.7500000E+01  0.6708975E+04 -0.3743110E+01 -0.1057916E+02  0.6317528E-01  0.3216119E+01  0.8024609E-01  0.7179228E+02 -0.4304733E+00  0.4567705E+05 -0.2694048E+02 -0.3777452E-01 -0.2156063E-03
  0.7600000E+01  0.6708975E+04 -0.1728700E+00 -0.1057916E+02  0.3207742E-01  0.3216119E+01  0.6584960E-01  0.7179228E+02 -0.2190753E+00  0.4567705E+05 -0.2220548E+01 -0.3777452E-01 -0.1854266E-03
  0.7700000E+01  0.6708975E+04  0.3319012E+01 -0.1057916E+02  0.5686654E-03  0.3216119E+01  0.4949278E-01  0.7179228E+02 -0.4847992E-02  0.4567705E+05  0.2199312E+02 -0.3777452E-01 -0.1495528E-03
  0.7800000E+01  0.6708975E+04  0.6607073E+01 -0.1057916E+02 -0.3015936E-01  0.3216119E+01  0.3186832E-01  0.7179228E+02  0.2041049E+00  0.4567705E+05  0.4482872E+02 -0.3777452E-01 -0.1095646E-03
  0.7900000E+01  0.6708975E+04  0.9575688E+01 -0.1057916E+02 -0.5897156E-01  0.3216119E+01  0.1369825E-01  0.7179228E+02  0.4000629E+00  0.4567705E+05  0.6548153E+02 -0.3777452E-01 -0.6715377E-04
  0.8000000E+01  0.6708975E+04  0.1212304E+02 -0.1057916E+02 -0.8482965E-01  0.3216119E+01 -0.4294645E-02  0.7179228E+02  0.5759632E+00  0.4567705E+05  0.8324165E+02 -0.3777452E-01 -0.2405344E-04
  0.8100000E+01  0.6708975E+04  0.1416464E+02 -0.1057916E+02 -0.1068292E+00  0.3216119E+01 -0.2141535E-01  0.7179228E+02  0.7256523E+00  0.4567705E+05  0.9751865E+02 -0.3777452E-01  0.1803040E-04
  0.8200000E+01  0.6708975E+04  0.1563610E+02 -0.1057916E+02 -0.1242299E+00  0.3216119E+01 -0.3702178E-01  0.7179228E+02  0.8440919E+00  0.4567705E+05  0.1078607E+03 -0.3777452E-01  0.5748306E-04
  0.8300000E+01  0.6708975E+04  0.1649521E+02 -0.1057916E+02 -0.1364810E+00  0.3216119E+01 -0.5054969E-01  0.7179228E+02  0.9275318E+00  0.4567705E+05  0.1139696E+03 -0.3777452E-01  0.9284425E-04
  0.8400001E+01  0.6708975E+04  0.1672303E+02 -0.1057916E+02 -0.1432366E+00  0.3216119E+01 -0.6153093E-01  0.7179228E+02  0.9736153E+00  0.4567705E+05  0.1157080E+03 -0.3777452E-01  0.1228573E-03
  0.8500000E+01  0.6708975E+04  0.1632422E+02 -0.1057916E+02 -0.1443655E+00  0.3216119E+01 -0.6960989E-01  0.7179228E+02  0.9814441E+00  0.4567705E+05  0.1131025E+03 -0.3777452E-01  0.1465140E-03
  0.8600000E+01  0.6708975E+04  0.1532649E+02 -0.1057916E+02 -0.1399509E+00  0.3216119E+01 -0.7455380E-01  0.7179228E+02  0.9515795E+00  0.4567705E+05  0.1063396E+03 -0.3777452E-01  0.1630855E-03
  0.8700000E+01  0.6708975E+04  0.1377915E+02 -0.1057916E+02 -0.1302841E+00  0.3216119E+01 -0.7625895E-01  0.7179228E+02  0.8859955E+00  0.4567705E+05  0.9575609E+02 -0.3777452E-01  0.1721434E-03
  0.8800000E+01  0.6708975E+04  0.1175092E+02 -0.1057916E+02 -0.1158478E+00  0.3216119E+01 -0.7475089E-01  0.7179228E+02  0.7879707E+00  0.4567705E+05  0.8182360E+02 -0.3777452E-01  0.1735675E-03
  0.8900001E+01  0.6708975E+04  0.9327038E+01 -0.1057916E+02 -0.9729540E-01  0.3216119E+01 -0.7018017E-01  0.7179228E+02  0.6619436E+00  0.4567705E+05  0.6512939E+02 -0.3777452E-01  0.1675414E-03
  0.9000000E+01  0.6708975E+04  0.6605909E+01 -0.1057916E+02 -0.7542290E-01  0.3216119E+01 -0.6281352E-01  0.7179228E+02  0.5133227E+00  0.4567705E+05  0.4635249E+02 -0.3777452E-01  0.1545371E-03
  0.9100000E+01  0.6708975E+04  0.3695052E+01 -0.1057916E+02 -0.5113496E-01  0.3216119E+01 -0.5302006E-01  0.7179228E+02  0.3482563E+00  0.4567705E+05  0.2623616E+02 -0.3777452E-01  0.1352882E-03
  0.9200000E+01  0.6708975E+04  0.7071629E+00 -0.1057916E+02 -0.2541019E-01  0.3216119E+01 -0.4125467E-01  0.7179228E+02  0.1733968E+00  0.4567705E+05  0.5560441E+01 -0.3777452E-01  0.1107542E-03
  0.9300000E+01  0.6708975E+04 -0.2244390E+01 -0.1057916E+02  0.7389837E-03  0.3216119E+01 -0.2803776E-01  0.7179228E+02 -0.4372706E-02  0.4567705E+05 -0.1488901E+02 -0.3777452E-01  0.8207603E-04
  0.9400001E+01  0.6708975E+04 -0.5049593E+01 -0.1057916E+02  0.2630366E-01  0.3216119E+01 -0.1393383E-01  0.7179228E+02 -0.1781926E+00  0.4567705E+05 -0.3434891E+02 -0.3777452E-01  0.5052760E-04
  0.9500000E+01  0.6708975E+04 -0.7605925E+01 -0.1057916E+02  0.5031719E-01  0.3216119E+01  0.4716483E-03  0.7179228E+02 -0.3414894E+00  0.4567705E+05 -0.5210703E+02 -0.3777452E-01  0.1746198E-04
  0.9600000E+01  0.6708975E+04 -0.9822130E+01 -0.1057916E+02  0.7189192E-01  0.3216119E+01  0.1459633E-01  0.7179228E+02 -0.4882258E+00  0.4567705E+05 -0.6752848E+02 -0.3777452E-01 -0.1574480E-04
  0.9700000E+01  0.6708975E+04 -0.1162129E+02 -0.1057916E+02  0.9025000E-01  0.3216119E+01  0.2788293E-01  0.7179228E+02 -0.6131110E+00  0.4567705E+05 -0.8007710E+02 -0.3777452E-01 -0.4774810E-04
  0.9800000E+01  0.6708975E+04 -0.1294360E+02 -0.1057916E+02  0.1047520E+00  0.3216119E+01  0.3982063E-01  0.7179228E+02 -0.7117940E+00  0.4567705E+05 -0.8933484E+02 -0.3777452E-01 -0.7728523E-04
  0.9900001E+01  0.6708975E+04 -0.1374820E+02 -0.1057916E+02  0.1149176E+00  0.3216119E+01  0.4996375E-01  0.7179228E+02 -0.7810059E+00  0.4567705E+05 -0.9501456E+02 -0.3777452E-01 -0.1032245E-03
  0.1000000E+02  0.6708975E+04 -0.1401448E+02 -0.1057916E+02  0.1204420E+00  0.3216119E+01  0.5794816E-01  0.7179228E+02 -0.8186691E+00  0.4567705E+05 -0.9696925E+02 -0.3777452E-01 -0.1246062E-03
Zone t="DoF    2",I=   100,F=POINT
  0.1000000E+00  0.9644308E+01 -0.3620279E+00  0.6684241E+04 -0.2467158E+02 -0.1092188E+00 -0.3874261E-01 -0.4551107E+05  0.1766000E+03  0.6546787E+02 -0.2466011E+01 -0.1588549E-02  0.1159644E-03
  0.2000000E+00  0.9644308E+01 -0.3454134E+00  0.6684241E+04 -0.2332522E+02 -0.1092188E+00 -0.3753749E-01 -0.4551107E+05  0.1670705E+03  0.6546787E+02 -0.2352887E+01 -0.1588549E-02  0.1123653E-03
  0.3000000E+00  0.9644308E+01 -0.3183164E+00  0.6684241E+04 -0.2113439E+02 -0.1092188E+00 -0.3556382E-01 -0.4551107E+05  0.1515618E+03  0.6546787E+02 -0.2168390E+01 -0.1588549E-02  0.1064718E-03
  0.4000000E+00  0.9644308E+01 -0.2816068E+00  0.6684241E+04 -0.1817680E+02 -0.1092188E+00 -0.3287286E-01 -0.4551107E+05  0.1306208E+03  0.6546787E+02 -0.1918440E+01 -0.1588549E-02  0.9843843E-04
  0.5000000E+00  0.9644308E+01 -0.2364619E+00  0.6684241E+04 -0.1455730E+02 -0.1092188E+00 -0.2953425E-01 -0.4551107E+05  0.1049857E+03  0.6546787E+02 -0.1611051E+01 -0.1588549E-02  0.8847472E-04
  0.6000000E+00  0.9644308E+01 -0.1843264E+00  0.6684241E+04 -0.1040425E+02 -0.1092188E+00 -0.2563398E-01 -0.4551107E+05  0.7556003E+02  0.6546787E+02 -0.1256058E+01 -0.1588549E-02  0.7683959E-04
  0.7000000E+00  0.9644308E+01 -0.1268656E+00  0.6684241E+04 -0.5864880E+01 -0.1092188E+00 -0.2127188E-01 -0.4551107E+05  0.4338082E+02  0.6546787E+02 -0.8647956E+00 -0.1588549E-02  0.6383336E-04
  0.8000000E+00  0.9644308E+01 -0.6590867E-01  0.6684241E+04 -0.1100104E+01 -0.1092188E+00 -0.1655875E-01 -0.4551107E+05  0.9581594E+01  0.6546787E+02 -0.4497159E+00 -0.1588549E-02  0.4978904E-04
  0.9000000E+00  0.9644308E+01 -0.3389434E-02  0.6684241E+04  0.3721180E+01 -0.1092188E+00 -0.1161317E-01 -0.4551107E+05 -0.2464739E+02  0.6546787E+02 -0.2398241E-01 -0.1588549E-02  0.3506268E-04
  0.1000000E+01  0.9644308E+01  0.5871832E-01  0.6684241E+04  0.8428086E+01 -0.1092188E+00 -0.6558075E-02 -0.4551107E+05 -0.5810124E+02  0.6546787E+02  0.3989681E+00 -0.1588549E-02  0.2002300E-04
  0.1100000E+01  0.9644308E+01  0.1184656E+00  0.6684241E+04  0.1285380E+02 -0.1092188E+00 -0.1517264E-02 -0.4551107E+05 -0.8960299E+02  0.6546787E+02  0.8058676E+00 -0.1588549E-02  0.5040766E-05
  0.1200000E+01  0.9644308E+01  0.1739918E+00  0.6684241E+04  0.1684143E+02 -0.1092188E+00  0.3388057E-02 -0.4551107E+05 -0.1180449E+03  0.6546787E+02  0.1184049E+01 -0.1588549E-02 -0.9521673E-05
  0.1300000E+01  0.9644308E+01  0.2235858E+00  0.6684241E+04  0.2024963E+02 -0.1092188E+00  0.8042666E-02 -0.4551107E+05 -0.1424274E+03  0.6546787E+02  0.1521862E+01 -0.1588549E-02 -0.2332062E-04
  0.1400000E+01  0.9644308E+01  0.2657404E+00  0.6684241E+04  0.2295748E+02 -0.1092188E+00  0.1234045E-01 -0.4551107E+05 -0.1618943E+03  0.6546787E+02  0.1809045E+01 -0.1588549E-02 -0.3604051E-04
  0.1500000E+01  0.9644308E+01  0.2992016E+00  0.6684241E+04  0.2486880E+02 -0.1092188E+00  0.1618729E-01 -0.4551107E+05 -0.1757625E+03  0.6546787E+02  0.2037058E+01 -0.1588549E-02 -0.4740242E-04
  0.1600000E+01  0.9644308E+01  0.3230070E+00  0.6684241E+04  0.2591551E+02 -0.1092188E+00  0.1950342E-01 -0.4551107E+05 -0.1835457E+03  0.6546787E+02  0.2199346E+01 -0.1588549E-02 -0.5717137E-04
  0.1700000E+01  0.9644308E+01  0.3365154E+00  0.6684241E+04  0.2605994E+02 -0.1092188E+00  0.2222549E-01 -0.4551107E+05 -0.1849714E+03  0.6546787E+02  0.2291540E+01 -0.1588549E-02 -0.6516211E-04
  0.1800000E+01  0.9644308E+01  0.3394257E+00  0.6684241E+04  0.2529617E+02 -0.1092188E+00  0.2430794E-01 -0.4551107E+05 -0.1799897E+03  0.6546787E+02  0.2311585E+01 -0.1588549E-02 -0.7124351E-04
  0.1900000E+01  0.9644308E+01  0.3317834E+00  0.6684241E+04  0.2365014E+02 -0.1092188E+00  0.2572397E-01 -0.4551107E+05 -0.1687747E+03  0.6546787E+02  0.2259787E+01 -0.1588549E-02 -0.7534097E-04
  0.2000000E+01  0.9644308E+01  0.3139758E+00  0.6684241E+04  0.2117869E+02 -0.1092188E+00  0.2646577E-01 -0.4551107E+05 -0.1517180E+03  0.6546787E+02  0.2138774E+01 -0.1588549E-02 -0.7743729E-04
  0.2100000E+01  0.9644308E+01  0.2867156E+00  0.6684241E+04  0.1796748E+02 -0.1092188E+00  0.2654436E-01 -0.4551107E+05 -0.1294140E+03  0.6546787E+02  0.1953396E+01 -0.1588549E-02 -0.7757158E-04
  0.2200000E+01  0.9644308E+01  0.2510146E+00  0.6684241E+04  0.1412795E+02 -0.1092188E+00  0.2598867E-01 -0.4551107E+05 -0.1026388E+03  0.6546787E+02  0.1710533E+01 -0.1588549E-02 -0.7583671E-04
  0.2300000E+01  0.9644308E+01  0.2081464E+00  0.6684241E+04  0.9793285E+01 -0.1092188E+00  0.2484429E-01 -0.4551107E+05 -0.7232243E+02  0.6546787E+02  0.1418850E+01 -0.1588549E-02 -0.7237495E-04
  0.2400000E+01  0.9644308E+01  0.1596011E+00  0.6684241E+04  0.5113658E+01 -0.1092188E+00  0.2317156E-01 -0.4551107E+05 -0.3951532E+02  0.6546787E+02  0.1088486E+01 -0.1588549E-02 -0.6737226E-04
  0.2500000E+01  0.9644308E+01  0.1070336E+00  0.6684241E+04  0.2509981E+00 -0.1092188E+00  0.2104342E-01 -0.4551107E+05 -0.5351759E+01  0.6546787E+02  0.7307028E+00 -0.1588549E-02 -0.6105146E-04
  0.2600000E+01  0.9644308E+01  0.5220619E-01  0.6684241E+04 -0.4626848E+01 -0.1092188E+00  0.1854280E-01 -0.4551107E+05  0.2899084E+02  0.6546787E+02  0.3574927E+00 -0.1588549E-02 -0.5366426E-04
  0.2700000E+01  0.9644308E+01 -0.3071093E-02  0.6684241E+04 -0.9351919E+01 -0.1092188E+00  0.1575986E-01 -0.4551107E+05  0.6233269E+02  0.6546787E+02 -0.1882432E-01 -0.1588549E-02 -0.4548276E-04
  0.2800000E+01  0.9644308E+01 -0.5700209E-01  0.6684241E+04 -0.1376213E+02 -0.1092188E+00  0.1278901E-01 -0.4551107E+05  0.9353348E+02  0.6546787E+02 -0.3860229E+00 -0.1588549E-02 -0.3679033E-04
  0.2900000E+01  0.9644308E+01 -0.1078640E+00  0.6684241E+04 -0.1770686E+02 -0.1092188E+00  0.9725936E-02 -0.4551107E+05  0.1215319E+03  0.6546787E+02 -0.7323747E+00 -0.1588549E-02 -0.2787259E-04
  0.3000000E+01  0.9644308E+01 -0.1540634E+00  0.6684241E+04 -0.2105221E+02 -0.1092188E+00  0.6664652E-02 -0.4551107E+05  0.1453819E+03  0.6546787E+02 -0.1047033E+01 -0.1588549E-02 -0.1900854E-04
  0.3100000E+01  0.9644308E+01 -0.1941893E+00  0.6684241E+04 -0.2368562E+02 -0.1092188E+00  0.3694630E-02 -0.4551107E+05  0.1642863E+03  0.6546787E+02 -0.1320388E+01 -0.1588549E-02 -0.1046192E-04
  0.3200000E+01  0.9644308E+01 -0.2270559E+00  0.6684241E+04 -0.2551969E+02 -0.1092188E+00  0.8982914E-03 -0.4551107E+05  0.1776225E+03  0.6546787E+02 -0.1544365E+01 -0.1588549E-02 -0.2473624E-05
  0.3300000E+01  0.9644308E+01 -0.2517406E+00  0.6684241E+04 -0.2649515E+02 -0.1092188E+00 -0.1651360E-02 -0.4551107E+05  0.1849643E+03  0.6546787E+02 -0.1712679E+01 -0.1588549E-02  0.4745084E-05
  0.3400000E+01  0.9644308E+01 -0.2676103E+00  0.6684241E+04 -0.2658273E+02 -0.1092188E+00 -0.3892618E-02 -0.4551107E+05  0.1860952E+03  0.6546787E+02 -0.1821012E+01 -0.1588549E-02  0.1101824E-04
  0.3500000E+01  0.9644308E+01 -0.2743377E+00  0.6684241E+04 -0.2578406E+02 -0.1092188E+00 -0.5776572E-02 -0.4551107E+05  0.1810146E+03  0.6546787E+02 -0.1867132E+01 -0.1588549E-02  0.1620936E-04
  0.3600000E+01  0.9644308E+01 -0.2719082E+00  0.6684241E+04 -0.2413141E+02 -0.1092188E+00 -0.7268169E-02 -0.4551107E+05  0.1699368E+03  0.6546787E+02 -0.1850929E+01 -0.1588549E-02  0.2022437E-04
  0.3700000E+01  0.9644308E+01 -0.2606145E+00  0.6684241E+04 -0.2168638E+02 -0.1092188E+00 -0.8346749E-02 -0.4551107E+05  0.1532814E+03  0.6546787E+02 -0.1774388E+01 -0.1588549E-02  0.2301291E-04
  0.3800000E+01  0.9644308E+01 -0.2410417E+00  0.6684241E+04 -0.1853753E+02 -0.1092188E+00 -0.9006125E-02 -0.4551107E+05  0.1316579E+03  0.6546787E+02 -0.1641483E+01 -0.1588549E-02  0.2456827E-04
  0.3900000E+01  0.9644308E+01 -0.2140420E+00  0.6684241E+04 -0.1479713E+02 -0.1092188E+00 -0.9254185E-02 -0.4551107E+05  0.1058423E+03  0.6546787E+02 -0.1458007E+01 -0.1588549E-02  0.2492577E-04
  0.4000000E+01  0.9644308E+01 -0.1807013E+00  0.6684241E+04 -0.1059704E+02 -0.1092188E+00 -0.9112022E-02 -0.4551107E+05  0.7674941E+02  0.6546787E+02 -0.1231342E+01 -0.1588549E-02  0.2415986E-04
  0.4100000E+01  0.9644308E+01 -0.1422973E+00  0.6684241E+04 -0.6083946E+01 -0.1092188E+00 -0.8612696E-02 -0.4551107E+05  0.4539913E+02  0.6546787E+02 -0.9701779E+00 -0.1588549E-02  0.2237993E-04
  0.4200000E+01  0.9644308E+01 -0.1002524E+00  0.6684241E+04 -0.1414120E+01 -0.1092188E+00 -0.7799596E-02 -0.4551107E+05  0.1288009E+02  0.6546787E+02 -0.6841916E+00 -0.1588549E-02  0.1972517E-04
  0.4300000E+01  0.9644308E+01 -0.5608292E-01  0.6684241E+04  0.3252073E+01 -0.1092188E+00 -0.6724556E-02 -0.4551107E+05 -0.1968855E+02  0.6546787E+02 -0.3836967E+00 -0.1588549E-02  0.1635849E-04
  0.4400000E+01  0.9644308E+01 -0.1134382E-01  0.6684241E+04  0.7755921E+01 -0.1092188E+00 -0.5445717E-02 -0.4551107E+05 -0.5119726E+02  0.6546787E+02 -0.7927424E-01 -0.1588549E-02  0.1245989E-04
  0.4500000E+01  0.9644308E+01  0.3242471E-01  0.6684241E+04  0.1194584E+02 -0.1092188E+00 -0.4025269E-02 -0.4551107E+05 -0.8058446E+02  0.6546787E+02  0.2185952E+00 -0.1588549E-02  0.8219424E-05
  0.4600000E+01  0.9644308E+01  0.7375039E-01  0.6684241E+04  0.1568263E+02 -0.1092188E+00 -0.2527141E-02 -0.4551107E+05 -0.1068732E+03  0.6546787E+02  0.4998920E+00 -0.1588549E-02  0.3830142E-05
  0.4700000E+01  0.9644308E+01  0.1112789E+00  0.6684241E+04  0.1884426E+02 -0.1092188E+00 -0.1014688E-02 -0.4551107E+05 -0.1292049E+03  0.6546787E+02  0.7553972E+00 -0.1588549E-02 -0.5190026E-06
  0.4800000E+01  0.9644308E+01  0.1438174E+00  0.6684241E+04  0.2132988E+02 -0.1092188E+00  0.4514633E-03 -0.4551107E+05 -0.1468674E+03  0.6546787E+02  0.9769898E+00 -0.1588549E-02 -0.4649613E-05
  0.4900000E+01  0.9644308E+01  0.1703742E+00  0.6684241E+04  0.2306329E+02 -0.1092188E+00  0.1815490E-02 -0.4551107E+05 -0.1593195E+03  0.6546787E+02  0.1157917E+01 -0.1588549E-02 -0.8400027E-05
  0.5000000E+01  0.9644308E+01  0.1901884E+00  0.6684241E+04  0.2399525E+02 -0.1092188E+00  0.3028115E-02 -0.4551107E+05 -0.1662072E+03  0.6546787E+02  0.1292993E+01 -0.1588549E-02 -0.1163042E-04
  0.5100000E+01  0.9644308E+01  0.2027518E+00  0.6684241E+04  0.2410494E+02 -0.1092188E+00  0.4048116E-02 -0.4551107E+05 -0.1673743E+03  0.6546787E+02  0.1378756E+01 -0.1588549E-02 -0.1422714E-04