 VARIABLES="X" "Y" "Z" "abs(p) (Pa)" "angle(p) (rad)"
ZONE N=    802,E =     800, F=FEPOINT, ET=QUADRILATERAL
   1.90499997       0.00000000      -0.00000000       2.45197487       1.90004086    
   1.90404105      -6.04420006E-02  -0.00000000       2.45197487       1.90004086    
   0.00000000       0.00000000       0.00000000       2.45197487       1.90004086    
   1.90404105       6.04420006E-02  -0.00000000       2.45197487       1.90004086    
   1.88967395      0.241159007      -0.00000000       2.46771049       1.89767265    
   1.89637399      0.181081995      -0.00000000       2.46771049       1.89767265    
   0.00000000       0.00000000       0.00000000       2.46771049       1.89767265    
   1.88107097      0.300992996      -0.00000000       2.46771049       1.89767265    
   0.00000000       0.00000000       0.00000000       2.45635605       1.89938128    
   1.89637399      0.181081995      -0.00000000       2.45635605       1.89938128    
   1.90116501      0.120823003      -0.00000000       2.45635605       1.89938128    
   1.90404105       6.04420006E-02  -0.00000000       2.45635605       1.89938128    
   1.87057400      0.360523999      -0.00000000       2.48826194       1.89461946    
   1.88107097      0.300992996      -0.00000000       2.48826194       1.89461946    
   0.00000000       0.00000000       0.00000000       2.48826194       1.89461946    
   1.85819399      0.419692010      -0.00000000       2.48826194       1.89461946    
   1.80988598      0.594424009      -0.00000000       2.57910395       1.88180959    
   1.82783401      0.536701024      -0.00000000       2.57910395       1.88180959    
   0.00000000       0.00000000       0.00000000       2.57910395       1.88180959    
   1.79011405      0.651548028      -0.00000000       2.57910395       1.88180959    
   0.00000000       0.00000000       0.00000000       2.52385926       1.88947630    
   1.82783401      0.536701024      -0.00000000       2.52385926       1.88947630    
   1.84394205      0.478437006      -0.00000000       2.52385926       1.88947630    
   1.85819399      0.419692010      -0.00000000       2.52385926       1.88947630    
   1.76854098      0.708016992      -0.00000000       2.65559936       1.87173617    
   1.79011405      0.651548028      -0.00000000       2.65559936       1.87173617    
   0.00000000       0.00000000       0.00000000       2.65559936       1.87173617    
   1.74518704      0.763773024      -0.00000000       2.65559936       1.87173617    
   1.66468298      0.926204979      -0.00000000       2.88236117       1.84500206    
   1.69323206      0.872922003      -0.00000000       2.88236117       1.84500206    
   0.00000000       0.00000000       0.00000000       2.88236117       1.84500206    
   1.63445795      0.978555024      -0.00000000       2.88236117       1.84500206    
   0.00000000       0.00000000       0.00000000       2.75668693       1.85927880    
   1.69323206      0.872922003      -0.00000000       2.75668693       1.85927880    
   1.72007501      0.818759024      -0.00000000       2.75668693       1.85927880    
   1.74518704      0.763773024      -0.00000000       2.75668693       1.85927880    
   1.60258806       1.02992105      -0.00000000       3.02646494       1.83001912    
   1.63445795      0.978555024      -0.00000000       3.02646494       1.83001912    
   0.00000000       0.00000000       0.00000000       3.02646494       1.83001912    
   1.56910396       1.08024895      -0.00000000       3.02646494       1.83001912    
   1.45931494       1.22450995      -0.00000000       3.31155276       1.80375051    
   1.49743104       1.17759299      -0.00000000       3.31155276       1.80375051    
   0.00000000       0.00000000       0.00000000       3.31155276       1.80375051    
   1.41972899       1.27019501      -0.00000000       3.31155276       1.80375051    
   0.00000000       0.00000000       0.00000000       3.17611027       1.81575835    
   1.49743104       1.17759299      -0.00000000       3.17611027       1.81575835    
   1.53403997       1.12949002      -0.00000000       3.17611027       1.81575835    
   1.56910396       1.08024895      -0.00000000       3.17611027       1.81575835    
   1.37871301       1.31459999      -0.00000000       3.37413073       1.79838336    
   1.41972899       1.27019501      -0.00000000       3.37413073       1.79838336    
   0.00000000       0.00000000       0.00000000       3.37413073       1.79838336    
   1.33631003       1.35768199      -0.00000000       3.37413073       1.79838336    
   1.20120299       1.47855902      -0.00000000       3.14489317       1.81833601    
   1.24750996       1.43970299      -0.00000000       3.14489317       1.81833601    
   0.00000000       0.00000000       0.00000000       3.14489317       1.81833601    
   1.15368605       1.51592600      -0.00000000       3.14489317       1.81833601    
   0.00000000       0.00000000       0.00000000       3.29609656       1.80488145    
   1.24750996       1.43970299      -0.00000000       3.29609656       1.80488145    
   1.29255998       1.39939702      -0.00000000       3.29609656       1.80488145    
   1.33631003       1.35768199      -0.00000000       3.29609656       1.80488145    
   1.10500801       1.55176699      -0.00000000       2.98403311       1.83396411    
   1.15368605       1.51592600      -0.00000000       2.98403311       1.83396411    
   0.00000000       0.00000000       0.00000000       2.98403311       1.83396411    
   1.05521798       1.58604598      -0.00000000       2.98403311       1.83396411    
  0.899676025       1.67916906      -0.00000000       2.70940256       1.86470771    
  0.952499986       1.64977801      -0.00000000       2.70940256       1.86470771    
   0.00000000       0.00000000       0.00000000       2.70940256       1.86470771    
  0.845947027       1.70686805      -0.00000000       2.70940256       1.86470771    
   0.00000000       0.00000000       0.00000000       2.83450913       1.84997773    
  0.952499986       1.64977801      -0.00000000       2.83450913       1.84997773    
   1.00436401       1.61872697      -0.00000000       2.83450913       1.84997773    
   1.05521798       1.58604598      -0.00000000       2.83450913       1.84997773    
  0.791365981       1.73284900      -0.00000000       2.60961866       1.87747681    
  0.845947027       1.70686805      -0.00000000       2.60961866       1.87747681    
   0.00000000       0.00000000       0.00000000       2.60961866       1.87747681    
  0.735987008       1.75708497      -0.00000000       2.60961866       1.87747681    
  0.565632999       1.81908906      -0.00000000       2.48131514       1.89544356    
  0.623063982       1.80022705      -0.00000000       2.48131514       1.89544356    
   0.00000000       0.00000000       0.00000000       2.48131514       1.89544356    
  0.507632971       1.83611906      -0.00000000       2.48131514       1.89544356    
   0.00000000       0.00000000       0.00000000       2.53451562       1.88775814    
  0.623063982       1.80022705      -0.00000000       2.53451562       1.88775814    
  0.679867983       1.77955198      -0.00000000       2.53451562       1.88775814    
  0.735987008       1.75708497      -0.00000000       2.53451562       1.88775814    
  0.449120998       1.85130095      -0.00000000       2.44602156       1.90075207    
  0.507632971       1.83611906      -0.00000000       2.44602156       1.90075207    
   0.00000000       0.00000000       0.00000000       2.44602156       1.90075207    
  0.390157014       1.86461902      -0.00000000       2.44602156       1.90075207    
  0.211146995       1.89326203      -0.00000000       2.41112399       1.90620446    
  0.271109998       1.88560998      -0.00000000       2.41112399       1.90620446    
   0.00000000       0.00000000       0.00000000       2.41112399       1.90620446    
  0.150970995       1.89900804      -0.00000000       2.41112399       1.90620446    
   0.00000000       0.00000000       0.00000000       2.42417812       1.90414119    
  0.271109998       1.88560998      -0.00000000       2.42417812       1.90414119    
  0.330799997       1.87605906      -0.00000000       2.42417812       1.90414119    
  0.390157014       1.86461902      -0.00000000       2.42417812       1.90414119    
   9.06440020E-02   1.90284204      -0.00000000       2.40589857       1.90703940    
  0.150970995       1.89900804      -0.00000000       2.40589857       1.90703940    
   0.00000000       0.00000000       0.00000000       2.40589857       1.90703940    
   3.02249994E-02   1.90476000      -0.00000000       2.40589857       1.90703940    
 -0.150970995       1.89900804      -0.00000000       2.41228533       1.90601063    
  -9.06440020E-02   1.90284204      -0.00000000       2.41228533       1.90601063    
   0.00000000       0.00000000       0.00000000       2.41228533       1.90601063    
 -0.211146995       1.89326203      -0.00000000       2.41228533       1.90601063    
   0.00000000       0.00000000       0.00000000       2.40599108       1.90701962    
  -9.06440020E-02   1.90284204      -0.00000000       2.40599108       1.90701962    
  -3.02249994E-02   1.90476000      -0.00000000       2.40599108       1.90701962    
   3.02249994E-02   1.90476000      -0.00000000       2.40599108       1.90701962    
 -0.271109998       1.88560998      -0.00000000       2.42641997       1.90377712    
 -0.211146995       1.89326203      -0.00000000       2.42641997       1.90377712    
   0.00000000       0.00000000       0.00000000       2.42641997       1.90377712    
 -0.330799997       1.87605906      -0.00000000       2.42641997       1.90377712    
 -0.507632971       1.83611906      -0.00000000       2.49085355       1.89405370    
 -0.449120998       1.85130095      -0.00000000       2.49085355       1.89405370    
   0.00000000       0.00000000       0.00000000       2.49085355       1.89405370    
 -0.565632999       1.81908906      -0.00000000       2.49085355       1.89405370    
   0.00000000       0.00000000       0.00000000       2.45118809       1.89996159    
 -0.449120998       1.85130095      -0.00000000       2.45118809       1.89996159    
 -0.390157014       1.86461902      -0.00000000       2.45118809       1.89996159    
 -0.330799997       1.87605906      -0.00000000       2.45118809       1.89996159    
 -0.623063982       1.80022705      -0.00000000       2.54975963       1.88566327    
 -0.565632999       1.81908906      -0.00000000       2.54975963       1.88566327    
   0.00000000       0.00000000       0.00000000       2.54975963       1.88566327    
 -0.679867983       1.77955198      -0.00000000       2.54975963       1.88566327    
 -0.845947027       1.70686805      -0.00000000       2.73371315       1.86185157    
 -0.791365981       1.73284900      -0.00000000       2.73371315       1.86185157    
   0.00000000       0.00000000       0.00000000       2.73371315       1.86185157    
 -0.899676025       1.67916906      -0.00000000       2.73371315       1.86185157    
   0.00000000       0.00000000       0.00000000       2.62966943       1.87490737    
 -0.791365981       1.73284900      -0.00000000       2.62966943       1.87490737    
 -0.735987008       1.75708497      -0.00000000       2.62966943       1.87490737    
 -0.679867983       1.77955198      -0.00000000       2.62966943       1.87490737    
 -0.952499986       1.64977801      -0.00000000       2.86209607       1.84705210    
 -0.899676025       1.67916906      -0.00000000       2.86209607       1.84705210    
   0.00000000       0.00000000       0.00000000       2.86209607       1.84705210    
  -1.00436401       1.61872697      -0.00000000       2.86209607       1.84705210    
  -1.15368605       1.51592600      -0.00000000       3.16012311       1.81707072    
  -1.10500801       1.55176699      -0.00000000       3.16012311       1.81707072    
   0.00000000       0.00000000       0.00000000       3.16012311       1.81707072    
  -1.20120299       1.47855902      -0.00000000       3.16012311       1.81707072    
   0.00000000       0.00000000       0.00000000       3.00873137       1.83163071    
  -1.10500801       1.55176699      -0.00000000       3.00873137       1.83163071    
  -1.05521798       1.58604598      -0.00000000       3.00873137       1.83163071    
  -1.00436401       1.61872697      -0.00000000       3.00873137       1.83163071    
  -1.24750996       1.43970299      -0.00000000       3.29677272       1.80486345    
  -1.20120299       1.47855902      -0.00000000       3.29677272       1.80486345    
   0.00000000       0.00000000       0.00000000       3.29677272       1.80486345    
  -1.29255998       1.39939702      -0.00000000       3.29677272       1.80486345    
  -1.41972899       1.27019501      -0.00000000       3.28291273       1.80587852    
  -1.37871301       1.31459999      -0.00000000       3.28291273       1.80587852    
   0.00000000       0.00000000       0.00000000       3.28291273       1.80587852    
  -1.45931494       1.22450995      -0.00000000       3.28291273       1.80587852    
   0.00000000       0.00000000       0.00000000       3.36008906       1.79940331    
  -1.37871301       1.31459999      -0.00000000       3.36008906       1.79940331    
  -1.33631003       1.35768199      -0.00000000       3.36008906       1.79940331    
  -1.29255998       1.39939702      -0.00000000       3.36008906       1.79940331    
  -1.49743104       1.17759299      -0.00000000       3.13286138       1.81932092    
  -1.45931494       1.22450995      -0.00000000       3.13286138       1.81932092    
   0.00000000       0.00000000       0.00000000       3.13286138       1.81932092    
  -1.53403997       1.12949002      -0.00000000       3.13286138       1.81932092    
  -1.63445795      0.978555024      -0.00000000       2.82482243       1.85091960    
  -1.60258806       1.02992105      -0.00000000       2.82482243       1.85091960    
   0.00000000       0.00000000       0.00000000       2.82482243       1.85091960    
  -1.66468298      0.926204979      -0.00000000       2.82482243       1.85091960    
   0.00000000       0.00000000       0.00000000       2.97312880       1.83493614    
  -1.60258806       1.02992105      -0.00000000       2.97312880       1.83493614    
  -1.56910396       1.08024895      -0.00000000       2.97312880       1.83493614    
  -1.53403997       1.12949002      -0.00000000       2.97312880       1.83493614    
  -1.69323206      0.872922003      -0.00000000       2.70093226       1.86559463    
  -1.66468298      0.926204979      -0.00000000       2.70093226       1.86559463    
   0.00000000       0.00000000       0.00000000       2.70093226       1.86559463    
  -1.72007501      0.818759024      -0.00000000       2.70093226       1.86559463    
  -1.79011405      0.651548028      -0.00000000       2.52758694       1.88856077    
  -1.76854098      0.708016992      -0.00000000       2.52758694       1.88856077    
   0.00000000       0.00000000       0.00000000       2.52758694       1.88856077    
  -1.80988598      0.594424009      -0.00000000       2.52758694       1.88856077    
   0.00000000       0.00000000       0.00000000       2.60203290       1.87831748    
  -1.76854098      0.708016992      -0.00000000       2.60203290       1.87831748    
  -1.74518704      0.763773024      -0.00000000       2.60203290       1.87831748    
  -1.72007501      0.818759024      -0.00000000       2.60203290       1.87831748    
  -1.82783401      0.536701024      -0.00000000       2.47493458       1.89620543    
  -1.80988598      0.594424009      -0.00000000       2.47493458       1.89620543    
   0.00000000       0.00000000       0.00000000       2.47493458       1.89620543    
  -1.84394205      0.478437006      -0.00000000       2.47493458       1.89620543    
  -1.88107097      0.300992996      -0.00000000       2.41866088       1.90481746    
  -1.87057400      0.360523999      -0.00000000       2.41866088       1.90481746    
   0.00000000       0.00000000       0.00000000       2.41866088       1.90481746    
  -1.88967395      0.241159007      -0.00000000       2.41866088       1.90481746    
   0.00000000       0.00000000       0.00000000       2.44013453       1.90146887    
  -1.87057400      0.360523999      -0.00000000       2.44013453       1.90146887    
  -1.85819399      0.419692010      -0.00000000       2.44013453       1.90146887    
  -1.84394205      0.478437006      -0.00000000       2.44013453       1.90146887    
  -1.89637399      0.181081995      -0.00000000       2.40595603       1.90684152    
  -1.88967395      0.241159007      -0.00000000       2.40595603       1.90684152    
   0.00000000       0.00000000       0.00000000       2.40595603       1.90684152    
  -1.90116501      0.120823003      -0.00000000       2.40595603       1.90684152    
  -1.90404105      -6.04420006E-02  -0.00000000       2.40136528       1.90758824    
  -1.90499997       0.00000000      -0.00000000       2.40136528       1.90758824    
   0.00000000       0.00000000       0.00000000       2.40136528       1.90758824    
  -1.90116501     -0.120823003      -0.00000000       2.40136528       1.90758824    
   0.00000000       0.00000000       0.00000000       2.40100598       1.90764093    
  -1.90499997       0.00000000      -0.00000000       2.40100598       1.90764093    
  -1.90404105       6.04420006E-02  -0.00000000       2.40100598       1.90764093    
  -1.90116501      0.120823003      -0.00000000       2.40100598       1.90764093    
  -1.89637399     -0.181081995      -0.00000000       2.40796185       1.90653872    
  -1.90116501     -0.120823003      -0.00000000       2.40796185       1.90653872    
   0.00000000       0.00000000       0.00000000       2.40796185       1.90653872    
  -1.88967395     -0.241159007      -0.00000000       2.40796185       1.90653872    
  -1.85819399     -0.419692010      -0.00000000       2.44767189       1.90037048    
  -1.87057400     -0.360523999      -0.00000000       2.44767189       1.90037048    
   0.00000000       0.00000000       0.00000000       2.44767189       1.90037048    
  -1.84394205     -0.478437006      -0.00000000       2.44767189       1.90037048    
   0.00000000       0.00000000       0.00000000       2.42246842       1.90425181    
  -1.87057400     -0.360523999      -0.00000000       2.42246842       1.90425181    
  -1.88107097     -0.300992996      -0.00000000       2.42246842       1.90425181    
  -1.88967395     -0.241159007      -0.00000000       2.42246842       1.90425181    
  -1.82783401     -0.536701024      -0.00000000       2.48782301       1.89438701    
  -1.84394205     -0.478437006      -0.00000000       2.48782301       1.89438701    
   0.00000000       0.00000000       0.00000000       2.48782301       1.89438701    
  -1.80988598     -0.594424009      -0.00000000       2.48782301       1.89438701    
  -1.74518704     -0.763773024      -0.00000000       2.62768364       1.87508714    
  -1.76854098     -0.708016992      -0.00000000       2.62768364       1.87508714    
   0.00000000       0.00000000       0.00000000       2.62768364       1.87508714    
  -1.72007501     -0.818759024      -0.00000000       2.62768364       1.87508714    
   0.00000000       0.00000000       0.00000000       2.54723573       1.88592172    
  -1.76854098     -0.708016992      -0.00000000       2.54723573       1.88592172    
  -1.79011405     -0.651548028      -0.00000000       2.54723573       1.88592172    
  -1.80988598     -0.594424009      -0.00000000       2.54723573       1.88592172    
  -1.69323206     -0.872922003      -0.00000000       2.73230600       1.86196065    
  -1.72007501     -0.818759024      -0.00000000       2.73230600       1.86196065    
   0.00000000       0.00000000       0.00000000       2.73230600       1.86196065    
  -1.66468298     -0.926204979      -0.00000000       2.73230600       1.86196065    
  -1.56910396      -1.08024895      -0.00000000       3.00870776       1.83160424    
  -1.60258806      -1.02992105      -0.00000000       3.00870776       1.83160424    
   0.00000000       0.00000000       0.00000000       3.00870776       1.83160424    
  -1.53403997      -1.12949002      -0.00000000       3.00870776       1.83160424    
   0.00000000       0.00000000       0.00000000       2.86134934       1.84709001    
  -1.60258806      -1.02992105      -0.00000000       2.86134934       1.84709001    
  -1.63445795     -0.978555024      -0.00000000       2.86134934       1.84709001    
  -1.66468298     -0.926204979      -0.00000000       2.86134934       1.84709001    
  -1.49743104      -1.17759299      -0.00000000       3.16083479       1.81699204    
  -1.53403997      -1.12949002      -0.00000000       3.16083479       1.81699204    
   0.00000000       0.00000000       0.00000000       3.16083479       1.81699204    
  -1.45931494      -1.22450995      -0.00000000       3.16083479       1.81699204    
  -1.33631003      -1.35768199      -0.00000000       3.36172962       1.79928648    
  -1.37871301      -1.31459999      -0.00000000       3.36172962       1.79928648    
   0.00000000       0.00000000       0.00000000       3.36172962       1.79928648    
  -1.29255998      -1.39939702      -0.00000000       3.36172962       1.79928648    
   0.00000000       0.00000000       0.00000000       3.29817748       1.80474710    
  -1.37871301      -1.31459999      -0.00000000       3.29817748       1.80474710    
  -1.41972899      -1.27019501      -0.00000000       3.29817748       1.80474710    
  -1.45931494      -1.22450995      -0.00000000       3.29817748       1.80474710    
  -1.24750996      -1.43970299      -0.00000000       3.28456926       1.80576670    
  -1.29255998      -1.39939702      -0.00000000       3.28456926       1.80576670    
   0.00000000       0.00000000       0.00000000       3.28456926       1.80576670    
  -1.20120299      -1.47855902      -0.00000000       3.28456926       1.80576670    
  -1.05521798      -1.58604598      -0.00000000       2.97533250       1.83475554    
  -1.10500801      -1.55176699      -0.00000000       2.97533250       1.83475554    
   0.00000000       0.00000000       0.00000000       2.97533250       1.83475554    
  -1.00436401      -1.61872697      -0.00000000       2.97533250       1.83475554    
   0.00000000       0.00000000       0.00000000       3.13478255       1.81917894    
  -1.10500801      -1.55176699      -0.00000000       3.13478255       1.81917894    
  -1.15368605      -1.51592600      -0.00000000       3.13478255       1.81917894    
  -1.20120299      -1.47855902      -0.00000000       3.13478255       1.81917894    
 -0.952499986      -1.64977801      -0.00000000       2.82727718       1.85069454    
  -1.00436401      -1.61872697      -0.00000000       2.82727718       1.85069454    
   0.00000000       0.00000000       0.00000000       2.82727718       1.85069454    
 -0.899676025      -1.67916906      -0.00000000       2.82727718       1.85069454    
 -0.735987008      -1.75708497      -0.00000000       2.60487676       1.87801218    
 -0.791365981      -1.73284900      -0.00000000       2.60487676       1.87801218    
   0.00000000       0.00000000       0.00000000       2.60487676       1.87801218    
 -0.679867983      -1.77955198      -0.00000000       2.60487676       1.87801218    
   0.00000000       0.00000000       0.00000000       2.70360184       1.86532772    
 -0.791365981      -1.73284900      -0.00000000       2.70360184       1.86532772    
 -0.845947027      -1.70686805      -0.00000000       2.70360184       1.86532772    
 -0.899676025      -1.67916906      -0.00000000       2.70360184       1.86532772    
 -0.623063982      -1.80022705      -0.00000000       2.53061628       1.88821805    
 -0.679867983      -1.77955198      -0.00000000       2.53061628       1.88821805    
   0.00000000       0.00000000       0.00000000       2.53061628       1.88821805    
 -0.565632999      -1.81908906      -0.00000000       2.53061628       1.88821805    
 -0.390157014      -1.86461902      -0.00000000       2.44349718       1.90106153    
 -0.449120998      -1.85130095      -0.00000000       2.44349718       1.90106153    
   0.00000000       0.00000000       0.00000000       2.44349718       1.90106153    
 -0.330799997      -1.87605906      -0.00000000       2.44349718       1.90106153    
   0.00000000       0.00000000       0.00000000       2.47815061       1.89582407    
 -0.449120998      -1.85130095      -0.00000000       2.47815061       1.89582407    
 -0.507632971      -1.83611906      -0.00000000       2.47815061       1.89582407    
 -0.565632999      -1.81908906      -0.00000000       2.47815061       1.89582407    
 -0.271109998      -1.88560998      -0.00000000       2.42212176       1.90439534    
 -0.330799997      -1.87605906      -0.00000000       2.42212176       1.90439534    
   0.00000000       0.00000000       0.00000000       2.42212176       1.90439534    
 -0.211146995      -1.89326203      -0.00000000       2.42212176       1.90439534    
  -3.02249994E-02  -1.90476000      -0.00000000       2.40447402       1.90722382    
  -9.06440020E-02  -1.90284204      -0.00000000       2.40447402       1.90722382    
   0.00000000       0.00000000       0.00000000       2.40447402       1.90722382    
   3.02249994E-02  -1.90476000      -0.00000000       2.40447402       1.90722382    
   0.00000000       0.00000000       0.00000000       2.40945959       1.90641260    
  -9.06440020E-02  -1.90284204      -0.00000000       2.40945959       1.90641260    
 -0.150970995      -1.89900804      -0.00000000       2.40945959       1.90641260    
 -0.211146995      -1.89326203      -0.00000000       2.40945959       1.90641260    
   9.06440020E-02  -1.90284204      -0.00000000       2.40478921       1.90718257    
   3.02249994E-02  -1.90476000      -0.00000000       2.40478921       1.90718257    
   0.00000000       0.00000000       0.00000000       2.40478921       1.90718257    
  0.150970995      -1.89900804      -0.00000000       2.40478921       1.90718257    
  0.330799997      -1.87605906      -0.00000000       2.42594624       1.90384865    
  0.271109998      -1.88560998      -0.00000000       2.42594624       1.90384865    
   0.00000000       0.00000000       0.00000000       2.42594624       1.90384865    
  0.390157014      -1.86461902      -0.00000000       2.42594624       1.90384865    
   0.00000000       0.00000000       0.00000000       2.41137624       1.90614045    
  0.271109998      -1.88560998      -0.00000000       2.41137624       1.90614045    
  0.211146995      -1.89326203      -0.00000000       2.41137624       1.90614045    
  0.150970995      -1.89900804      -0.00000000       2.41137624       1.90614045    
  0.449120998      -1.85130095      -0.00000000       2.45123148       1.89996707    
  0.390157014      -1.86461902      -0.00000000       2.45123148       1.89996707    
   0.00000000       0.00000000       0.00000000       2.45123148       1.89996707    
  0.507632971      -1.83611906      -0.00000000       2.45123148       1.89996707    
  0.679867983      -1.77955198      -0.00000000       2.55105472       1.88550818    
  0.623063982      -1.80022705      -0.00000000       2.55105472       1.88550818    
   0.00000000       0.00000000       0.00000000       2.55105472       1.88550818    
  0.735987008      -1.75708497      -0.00000000       2.55105472       1.88550818    
   0.00000000       0.00000000       0.00000000       2.49153042       1.89397371    
  0.623063982      -1.80022705      -0.00000000       2.49153042       1.89397371    
  0.565632999      -1.81908906      -0.00000000       2.49153042       1.89397371    
  0.507632971      -1.83611906      -0.00000000       2.49153042       1.89397371    
  0.791365981      -1.73284900      -0.00000000       2.63164544       1.87467659    
  0.735987008      -1.75708497      -0.00000000       2.63164544       1.87467659    
   0.00000000       0.00000000       0.00000000       2.63164544       1.87467659    
  0.845947027      -1.70686805      -0.00000000       2.63164544       1.87467659    
   1.00436401      -1.61872697      -0.00000000       2.86599326       1.84665084    
  0.952499986      -1.64977801      -0.00000000       2.86599326       1.84665084    
   0.00000000       0.00000000       0.00000000       2.86599326       1.84665084    
   1.05521798      -1.58604598      -0.00000000       2.86599326       1.84665084    
   0.00000000       0.00000000       0.00000000       2.73670006       1.86152029    
  0.952499986      -1.64977801      -0.00000000       2.73670006       1.86152029    
  0.899676025      -1.67916906      -0.00000000       2.73670006       1.86152029    
  0.845947027      -1.70686805      -0.00000000       2.73670006       1.86152029    
   1.10500801      -1.55176699      -0.00000000       3.01341629       1.83118320    
   1.05521798      -1.58604598      -0.00000000       3.01341629       1.83118320    
   0.00000000       0.00000000       0.00000000       3.01341629       1.83118320    
   1.15368605      -1.51592600      -0.00000000       3.01341629       1.83118320    
   1.29255998      -1.39939702      -0.00000000       3.30331588       1.80432189    
   1.24750996      -1.43970299      -0.00000000       3.30331588       1.80432189    
   0.00000000       0.00000000       0.00000000       3.30331588       1.80432189    
   1.33631003      -1.35768199      -0.00000000       3.30331588       1.80432189    
   0.00000000       0.00000000       0.00000000       3.16568470       1.81657612    
   1.24750996      -1.43970299      -0.00000000       3.16568470       1.81657612    
   1.20120299      -1.47855902      -0.00000000       3.16568470       1.81657612    