 VARIABLES="X" "Y" "Z" "abs(p) (Pa)" "angle(p) (rad)"
ZONE N=    802,E =     800, F=FEPOINT, ET=QUADRILATERAL
   1.90499997       0.00000000      -0.00000000       215.966660       1.57318723    
   1.90404105      -6.04420006E-02  -0.00000000       215.966660       1.57318723    
   0.00000000       0.00000000       0.00000000       215.966660       1.57318723    
   1.90404105       6.04420006E-02  -0.00000000       215.966660       1.57318723    
   1.88967395      0.241159007      -0.00000000       215.661026       1.57318497    
   1.89637399      0.181081995      -0.00000000       215.661026       1.57318497    
   0.00000000       0.00000000       0.00000000       215.661026       1.57318497    
   1.88107097      0.300992996      -0.00000000       215.661026       1.57318497    
   0.00000000       0.00000000       0.00000000       215.923935       1.57318628    
   1.89637399      0.181081995      -0.00000000       215.923935       1.57318628    
   1.90116501      0.120823003      -0.00000000       215.923935       1.57318628    
   1.90404105       6.04420006E-02  -0.00000000       215.923935       1.57318628    
   1.87057400      0.360523999      -0.00000000       215.249786       1.57318234    
   1.88107097      0.300992996      -0.00000000       215.249786       1.57318234    
   0.00000000       0.00000000       0.00000000       215.249786       1.57318234    
   1.85819399      0.419692010      -0.00000000       215.249786       1.57318234    
   1.80988598      0.594424009      -0.00000000       215.035400       1.57316029    
   1.82783401      0.536701024      -0.00000000       215.035400       1.57316029    
   0.00000000       0.00000000       0.00000000       215.035400       1.57316029    
   1.79011405      0.651548028      -0.00000000       215.035400       1.57316029    
   0.00000000       0.00000000       0.00000000       214.996338       1.57317483    
   1.82783401      0.536701024      -0.00000000       214.996338       1.57317483    
   1.84394205      0.478437006      -0.00000000       214.996338       1.57317483    
   1.85819399      0.419692010      -0.00000000       214.996338       1.57317483    
   1.76854098      0.708016992      -0.00000000       215.511017       1.57313728    
   1.79011405      0.651548028      -0.00000000       215.511017       1.57313728    
   0.00000000       0.00000000       0.00000000       215.511017       1.57313728    
   1.74518704      0.763773024      -0.00000000       215.511017       1.57313728    
   1.66468298      0.926204979      -0.00000000       218.184875       1.57306099    
   1.69323206      0.872922003      -0.00000000       218.184875       1.57306099    
   0.00000000       0.00000000       0.00000000       218.184875       1.57306099    
   1.63445795      0.978555024      -0.00000000       218.184875       1.57306099    
   0.00000000       0.00000000       0.00000000       216.556152       1.57310414    
   1.69323206      0.872922003      -0.00000000       216.556152       1.57310414    
   1.72007501      0.818759024      -0.00000000       216.556152       1.57310414    
   1.74518704      0.763773024      -0.00000000       216.556152       1.57310414    
   1.60258806       1.02992105      -0.00000000       220.156967       1.57301140    
   1.63445795      0.978555024      -0.00000000       220.156967       1.57301140    
   0.00000000       0.00000000       0.00000000       220.156967       1.57301140    
   1.56910396       1.08024895      -0.00000000       220.156967       1.57301140    
   1.45931494       1.22450995      -0.00000000       222.825165       1.57291937    
   1.49743104       1.17759299      -0.00000000       222.825165       1.57291937    
   0.00000000       0.00000000       0.00000000       222.825165       1.57291937    
   1.41972899       1.27019501      -0.00000000       222.825165       1.57291937    
   0.00000000       0.00000000       0.00000000       222.013977       1.57296073    
   1.49743104       1.17759299      -0.00000000       222.013977       1.57296073    
   1.53403997       1.12949002      -0.00000000       222.013977       1.57296073    
   1.56910396       1.08024895      -0.00000000       222.013977       1.57296073    
   1.37871301       1.31459999      -0.00000000       218.616211       1.57293344    
   1.41972899       1.27019501      -0.00000000       218.616211       1.57293344    
   0.00000000       0.00000000       0.00000000       218.616211       1.57293344    
   1.33631003       1.35768199      -0.00000000       218.616211       1.57293344    
   1.20120299       1.47855902      -0.00000000       184.953995       1.57331300    
   1.24750996       1.43970299      -0.00000000       184.953995       1.57331300    
   0.00000000       0.00000000       0.00000000       184.953995       1.57331300    
   1.15368605       1.51592600      -0.00000000       184.953995       1.57331300    
   0.00000000       0.00000000       0.00000000       204.327835       1.57307434    
   1.24750996       1.43970299      -0.00000000       204.327835       1.57307434    
   1.29255998       1.39939702      -0.00000000       204.327835       1.57307434    
   1.33631003       1.35768199      -0.00000000       204.327835       1.57307434    
   1.10500801       1.55176699      -0.00000000       164.851349       1.57361829    
   1.15368605       1.51592600      -0.00000000       164.851349       1.57361829    
   0.00000000       0.00000000       0.00000000       164.851349       1.57361829    
   1.05521798       1.58604598      -0.00000000       164.851349       1.57361829    
  0.899676025       1.67916906      -0.00000000       126.048180       1.57446730    
  0.952499986       1.64977801      -0.00000000       126.048180       1.57446730    
   0.00000000       0.00000000       0.00000000       126.048180       1.57446730    
  0.845947027       1.70686805      -0.00000000       126.048180       1.57446730    
   0.00000000       0.00000000       0.00000000       145.023071       1.57399821    
  0.952499986       1.64977801      -0.00000000       145.023071       1.57399821    
   1.00436401       1.61872697      -0.00000000       145.023071       1.57399821    
   1.05521798       1.58604598      -0.00000000       145.023071       1.57399821    
  0.791365981       1.73284900      -0.00000000       107.984467       1.57506001    
  0.845947027       1.70686805      -0.00000000       107.984467       1.57506001    
   0.00000000       0.00000000       0.00000000       107.984467       1.57506001    
  0.735987008       1.75708497      -0.00000000       107.984467       1.57506001    
  0.565632999       1.81908906      -0.00000000       74.2744675       1.57690895    
  0.623063982       1.80022705      -0.00000000       74.2744675       1.57690895    
   0.00000000       0.00000000       0.00000000       74.2744675       1.57690895    
  0.507632971       1.83611906      -0.00000000       74.2744675       1.57690895    
   0.00000000       0.00000000       0.00000000       90.7711182       1.57583606    
  0.623063982       1.80022705      -0.00000000       90.7711182       1.57583606    
  0.679867983       1.77955198      -0.00000000       90.7711182       1.57583606    
  0.735987008       1.75708497      -0.00000000       90.7711182       1.57583606    
  0.449120998       1.85130095      -0.00000000       58.2974243       1.57851899    
  0.507632971       1.83611906      -0.00000000       58.2974243       1.57851899    
   0.00000000       0.00000000       0.00000000       58.2974243       1.57851899    
  0.390157014       1.86461902      -0.00000000       58.2974243       1.57851899    
  0.211146995       1.89326203      -0.00000000       27.2633801       1.58700359    
  0.271109998       1.88560998      -0.00000000       27.2633801       1.58700359    
   0.00000000       0.00000000       0.00000000       27.2633801       1.58700359    
  0.150970995       1.89900804      -0.00000000       27.2633801       1.58700359    
   0.00000000       0.00000000       0.00000000       42.6841278       1.58124781    
  0.271109998       1.88560998      -0.00000000       42.6841278       1.58124781    
  0.330799997       1.87605906      -0.00000000       42.6841278       1.58124781    
  0.390157014       1.86461902      -0.00000000       42.6841278       1.58124781    
   9.06440020E-02   1.90284204      -0.00000000       12.0446415       1.60712123    
  0.150970995       1.89900804      -0.00000000       12.0446415       1.60712123    
   0.00000000       0.00000000       0.00000000       12.0446415       1.60712123    
   3.02249994E-02   1.90476000      -0.00000000       12.0446415       1.60712123    
 -0.150970995       1.89900804      -0.00000000       18.3945904      -1.59409726    
  -9.06440020E-02   1.90284204      -0.00000000       18.3945904      -1.59409726    
   0.00000000       0.00000000       0.00000000       18.3945904      -1.59409726    
 -0.211146995       1.89326203      -0.00000000       18.3945904      -1.59409726    
   0.00000000       0.00000000       0.00000000       3.15740895      -1.70836103    
  -9.06440020E-02   1.90284204      -0.00000000       3.15740895      -1.70836103    
  -3.02249994E-02   1.90476000      -0.00000000       3.15740895      -1.70836103    
   3.02249994E-02   1.90476000      -0.00000000       3.15740895      -1.70836103    
 -0.271109998       1.88560998      -0.00000000       33.8193703      -1.58334041    
 -0.211146995       1.89326203      -0.00000000       33.8193703      -1.58334041    
   0.00000000       0.00000000       0.00000000       33.8193703      -1.58334041    
 -0.330799997       1.87605906      -0.00000000       33.8193703      -1.58334041    
 -0.507632971       1.83611906      -0.00000000       65.4933090      -1.57714820    
 -0.449120998       1.85130095      -0.00000000       65.4933090      -1.57714820    
   0.00000000       0.00000000       0.00000000       65.4933090      -1.57714820    
 -0.565632999       1.81908906      -0.00000000       65.4933090      -1.57714820    
   0.00000000       0.00000000       0.00000000       49.4427223      -1.57929075    
 -0.449120998       1.85130095      -0.00000000       49.4427223      -1.57929075    
 -0.390157014       1.86461902      -0.00000000       49.4427223      -1.57929075    
 -0.330799997       1.87605906      -0.00000000       49.4427223      -1.57929075    
 -0.623063982       1.80022705      -0.00000000       82.0798798      -1.57581997    
 -0.565632999       1.81908906      -0.00000000       82.0798798      -1.57581997    
   0.00000000       0.00000000       0.00000000       82.0798798      -1.57581997    
 -0.679867983       1.77955198      -0.00000000       82.0798798      -1.57581997    
 -0.845947027       1.70686805      -0.00000000       117.442322      -1.57425630    
 -0.791365981       1.73284900      -0.00000000       117.442322      -1.57425630    
   0.00000000       0.00000000       0.00000000       117.442322      -1.57425630    
 -0.899676025       1.67916906      -0.00000000       117.442322      -1.57425630    
   0.00000000       0.00000000       0.00000000       99.3511887      -1.57491362    
 -0.791365981       1.73284900      -0.00000000       99.3511887      -1.57491362    
 -0.735987008       1.75708497      -0.00000000       99.3511887      -1.57491362    
 -0.679867983       1.77955198      -0.00000000       99.3511887      -1.57491362    
 -0.952499986       1.64977801      -0.00000000       136.322342      -1.57376122    
 -0.899676025       1.67916906      -0.00000000       136.322342      -1.57376122    
   0.00000000       0.00000000       0.00000000       136.322342      -1.57376122    
  -1.00436401       1.61872697      -0.00000000       136.322342      -1.57376122    
  -1.15368605       1.51592600      -0.00000000       175.119522      -1.57308805    
  -1.10500801       1.55176699      -0.00000000       175.119522      -1.57308805    
   0.00000000       0.00000000       0.00000000       175.119522      -1.57308805    
  -1.20120299       1.47855902      -0.00000000       175.119522      -1.57308805    
   0.00000000       0.00000000       0.00000000       155.711792      -1.57338142    
  -1.10500801       1.55176699      -0.00000000       155.711792      -1.57338142    
  -1.05521798       1.58604598      -0.00000000       155.711792      -1.57338142    
  -1.00436401       1.61872697      -0.00000000       155.711792      -1.57338142    
  -1.24750996       1.43970299      -0.00000000       193.624313      -1.57286382    
  -1.20120299       1.47855902      -0.00000000       193.624313      -1.57286382    
   0.00000000       0.00000000       0.00000000       193.624313      -1.57286382    
  -1.29255998       1.39939702      -0.00000000       193.624313      -1.57286382    
  -1.41972899       1.27019501      -0.00000000       211.314423      -1.57265234    
  -1.37871301       1.31459999      -0.00000000       211.314423      -1.57265234    
   0.00000000       0.00000000       0.00000000       211.314423      -1.57265234    
  -1.45931494       1.22450995      -0.00000000       211.314423      -1.57265234    
   0.00000000       0.00000000       0.00000000       207.333054      -1.57271528    
  -1.37871301       1.31459999      -0.00000000       207.333054      -1.57271528    
  -1.33631003       1.35768199      -0.00000000       207.333054      -1.57271528    
  -1.29255998       1.39939702      -0.00000000       207.333054      -1.57271528    
  -1.49743104       1.17759299      -0.00000000       210.334106      -1.57262754    
  -1.45931494       1.22450995      -0.00000000       210.334106      -1.57262754    
   0.00000000       0.00000000       0.00000000       210.334106      -1.57262754    
  -1.53403997       1.12949002      -0.00000000       210.334106      -1.57262754    
  -1.63445795      0.978555024      -0.00000000       206.884705      -1.57259536    
  -1.60258806       1.02992105      -0.00000000       206.884705      -1.57259536    
   0.00000000       0.00000000       0.00000000       206.884705      -1.57259536    
  -1.66468298      0.926204979      -0.00000000       206.884705      -1.57259536    
   0.00000000       0.00000000       0.00000000       208.537872      -1.57261062    
  -1.60258806       1.02992105      -0.00000000       208.537872      -1.57261062    
  -1.56910396       1.08024895      -0.00000000       208.537872      -1.57261062    
  -1.53403997       1.12949002      -0.00000000       208.537872      -1.57261062    
  -1.69323206      0.872922003      -0.00000000       205.831070      -1.57257855    
  -1.66468298      0.926204979      -0.00000000       205.831070      -1.57257855    
   0.00000000       0.00000000       0.00000000       205.831070      -1.57257855    
  -1.72007501      0.818759024      -0.00000000       205.831070      -1.57257855    
  -1.79011405      0.651548028      -0.00000000       205.506912      -1.57254112    
  -1.76854098      0.708016992      -0.00000000       205.506912      -1.57254112    
   0.00000000       0.00000000       0.00000000       205.506912      -1.57254112    
  -1.80988598      0.594424009      -0.00000000       205.506912      -1.57254112    
   0.00000000       0.00000000       0.00000000       205.391159      -1.57256055    
  -1.76854098      0.708016992      -0.00000000       205.391159      -1.57256055    
  -1.74518704      0.763773024      -0.00000000       205.391159      -1.57256055    
  -1.72007501      0.818759024      -0.00000000       205.391159      -1.57256055    
  -1.82783401      0.536701024      -0.00000000       206.023422      -1.57252240    
  -1.80988598      0.594424009      -0.00000000       206.023422      -1.57252240    
   0.00000000       0.00000000       0.00000000       206.023422      -1.57252240    
  -1.84394205      0.478437006      -0.00000000       206.023422      -1.57252240    
  -1.88107097      0.300992996      -0.00000000       207.556320      -1.57249045    
  -1.87057400      0.360523999      -0.00000000       207.556320      -1.57249045    
   0.00000000       0.00000000       0.00000000       207.556320      -1.57249045    
  -1.88967395      0.241159007      -0.00000000       207.556320      -1.57249045    
   0.00000000       0.00000000       0.00000000       206.776230      -1.57250500    
  -1.87057400      0.360523999      -0.00000000       206.776230      -1.57250500    
  -1.85819399      0.419692010      -0.00000000       206.776230      -1.57250500    
  -1.84394205      0.478437006      -0.00000000       206.776230      -1.57250500    
  -1.89637399      0.181081995      -0.00000000       208.122986      -1.57248068    
  -1.88967395      0.241159007      -0.00000000       208.122986      -1.57248068    
   0.00000000       0.00000000       0.00000000       208.122986      -1.57248068    
  -1.90116501      0.120823003      -0.00000000       208.122986      -1.57248068    
  -1.90404105      -6.04420006E-02  -0.00000000       208.505310      -1.57247508    
  -1.90499997       0.00000000      -0.00000000       208.505310      -1.57247508    
   0.00000000       0.00000000       0.00000000       208.505310      -1.57247508    
  -1.90116501     -0.120823003      -0.00000000       208.505310      -1.57247508    
   0.00000000       0.00000000       0.00000000       208.462036      -1.57247543    
  -1.90499997       0.00000000      -0.00000000       208.462036      -1.57247543    
  -1.90404105       6.04420006E-02  -0.00000000       208.462036      -1.57247543    
  -1.90116501      0.120823003      -0.00000000       208.462036      -1.57247543    
  -1.89637399     -0.181081995      -0.00000000       208.274078      -1.57247972    
  -1.90116501     -0.120823003      -0.00000000       208.274078      -1.57247972    
   0.00000000       0.00000000       0.00000000       208.274078      -1.57247972    
  -1.88967395     -0.241159007      -0.00000000       208.274078      -1.57247972    
  -1.85819399     -0.419692010      -0.00000000       207.213074      -1.57250214    
  -1.87057400     -0.360523999      -0.00000000       207.213074      -1.57250214    
   0.00000000       0.00000000       0.00000000       207.213074      -1.57250214    
  -1.84394205     -0.478437006      -0.00000000       207.213074      -1.57250214    
   0.00000000       0.00000000       0.00000000       207.804092      -1.57248914    
  -1.87057400     -0.360523999      -0.00000000       207.804092      -1.57248914    
  -1.88107097     -0.300992996      -0.00000000       207.804092      -1.57248914    
  -1.88967395     -0.241159007      -0.00000000       207.804092      -1.57248914    
  -1.82783401     -0.536701024      -0.00000000       206.770309      -1.57251728    
  -1.84394205     -0.478437006      -0.00000000       206.770309      -1.57251728    
   0.00000000       0.00000000       0.00000000       206.770309      -1.57251728    
  -1.80988598     -0.594424009      -0.00000000       206.770309      -1.57251728    
  -1.74518704     -0.763773024      -0.00000000       206.738266      -1.57255065    
  -1.76854098     -0.708016992      -0.00000000       206.738266      -1.57255065    
   0.00000000       0.00000000       0.00000000       206.738266      -1.57255065    
  -1.72007501     -0.818759024      -0.00000000       206.738266      -1.57255065    
   0.00000000       0.00000000       0.00000000       206.562592      -1.57253385    
  -1.76854098     -0.708016992      -0.00000000       206.562592      -1.57253385    
  -1.79011405     -0.651548028      -0.00000000       206.562592      -1.57253385    
  -1.80988598     -0.594424009      -0.00000000       206.562592      -1.57253385    
  -1.69323206     -0.872922003      -0.00000000       207.443298      -1.57256687    
  -1.72007501     -0.818759024      -0.00000000       207.443298      -1.57256687    
   0.00000000       0.00000000       0.00000000       207.443298      -1.57256687    
  -1.66468298     -0.926204979      -0.00000000       207.443298      -1.57256687    
  -1.56910396      -1.08024895      -0.00000000       210.233444      -1.57259798    
  -1.60258806      -1.02992105      -0.00000000       210.233444      -1.57259798    
   0.00000000       0.00000000       0.00000000       210.233444      -1.57259798    
  -1.53403997      -1.12949002      -0.00000000       210.233444      -1.57259798    
   0.00000000       0.00000000       0.00000000       208.674850      -1.57258213    
  -1.60258806      -1.02992105      -0.00000000       208.674850      -1.57258213    
  -1.63445795     -0.978555024      -0.00000000       208.674850      -1.57258213    
  -1.66468298     -0.926204979      -0.00000000       208.674850      -1.57258213    
  -1.49743104      -1.17759299      -0.00000000       211.648956      -1.57261765    
  -1.53403997      -1.12949002      -0.00000000       211.648956      -1.57261765    
   0.00000000       0.00000000       0.00000000       211.648956      -1.57261765    
  -1.45931494      -1.22450995      -0.00000000       211.648956      -1.57261765    
  -1.33631003      -1.35768199      -0.00000000       207.415771      -1.57271492    
  -1.37871301      -1.31459999      -0.00000000       207.415771      -1.57271492    
   0.00000000       0.00000000       0.00000000       207.415771      -1.57271492    
  -1.29255998      -1.39939702      -0.00000000       207.415771      -1.57271492    
   0.00000000       0.00000000       0.00000000       212.004074      -1.57264721    
  -1.37871301      -1.31459999      -0.00000000       212.004074      -1.57264721    
  -1.41972899      -1.27019501      -0.00000000       212.004074      -1.57264721    
  -1.45931494      -1.22450995      -0.00000000       212.004074      -1.57264721    
  -1.24750996      -1.43970299      -0.00000000       193.050964      -1.57286966    
  -1.29255998      -1.39939702      -0.00000000       193.050964      -1.57286966    
   0.00000000       0.00000000       0.00000000       193.050964      -1.57286966    
  -1.20120299      -1.47855902      -0.00000000       193.050964      -1.57286966    
  -1.05521798      -1.58604598      -0.00000000       153.866348      -1.57341075    
  -1.10500801      -1.55176699      -0.00000000       153.866348      -1.57341075    
   0.00000000       0.00000000       0.00000000       153.866348      -1.57341075    
  -1.00436401      -1.61872697      -0.00000000       153.866348      -1.57341075    
   0.00000000       0.00000000       0.00000000       173.811020      -1.57310450    
  -1.10500801      -1.55176699      -0.00000000       173.811020      -1.57310450    
  -1.15368605      -1.51592600      -0.00000000       173.811020      -1.57310450    
  -1.20120299      -1.47855902      -0.00000000       173.811020      -1.57310450    
 -0.952499986      -1.64977801      -0.00000000       134.183182      -1.57380605    
  -1.00436401      -1.61872697      -0.00000000       134.183182      -1.57380605    
   0.00000000       0.00000000       0.00000000       134.183182      -1.57380605    
 -0.899676025      -1.67916906      -0.00000000       134.183182      -1.57380605    
 -0.735987008      -1.75708497      -0.00000000       97.3878632      -1.57499444    
 -0.791365981      -1.73284900      -0.00000000       97.3878632      -1.57499444    
   0.00000000       0.00000000       0.00000000       97.3878632      -1.57499444    
 -0.679867983      -1.77955198      -0.00000000       97.3878632      -1.57499444    
   0.00000000       0.00000000       0.00000000       115.338806      -1.57431686    
 -0.791365981      -1.73284900      -0.00000000       115.338806      -1.57431686    
 -0.845947027      -1.70686805      -0.00000000       115.338806      -1.57431686    
 -0.899676025      -1.67916906      -0.00000000       115.338806      -1.57431686    
 -0.623063982      -1.80022705      -0.00000000       80.2636032      -1.57593179    
 -0.679867983      -1.77955198      -0.00000000       80.2636032      -1.57593179    
   0.00000000       0.00000000       0.00000000       80.2636032      -1.57593179    
 -0.565632999      -1.81908906      -0.00000000       80.2636032      -1.57593179    
 -0.390157014      -1.86461902      -0.00000000       47.9254799      -1.57955861    
 -0.449120998      -1.85130095      -0.00000000       47.9254799      -1.57955861    
   0.00000000       0.00000000       0.00000000       47.9254799      -1.57955861    
 -0.330799997      -1.87605906      -0.00000000       47.9254799      -1.57955861    
   0.00000000       0.00000000       0.00000000       63.8400841      -1.57731116    
 -0.449120998      -1.85130095      -0.00000000       63.8400841      -1.57731116    
 -0.507632971      -1.83611906      -0.00000000       63.8400841      -1.57731116    
 -0.565632999      -1.81908906      -0.00000000       63.8400841      -1.57731116    
 -0.271109998      -1.88560998      -0.00000000       32.3660889      -1.58390224    
 -0.330799997      -1.87605906      -0.00000000       32.3660889      -1.58390224    
   0.00000000       0.00000000       0.00000000       32.3660889      -1.58390224    
 -0.211146995      -1.89326203      -0.00000000       32.3660889      -1.58390224    
  -3.02249994E-02  -1.90476000      -0.00000000       1.82977581      -1.80967927    
  -9.06440020E-02  -1.90284204      -0.00000000       1.82977581      -1.80967927    
   0.00000000       0.00000000       0.00000000       1.82977581      -1.80967927    
   3.02249994E-02  -1.90476000      -0.00000000       1.82977581      -1.80967927    
   0.00000000       0.00000000       0.00000000       16.9863148      -1.59602809    
  -9.06440020E-02  -1.90284204      -0.00000000       16.9863148      -1.59602809    
 -0.150970995      -1.89900804      -0.00000000       16.9863148      -1.59602809    
 -0.211146995      -1.89326203      -0.00000000       16.9863148      -1.59602809    
   9.06440020E-02  -1.90284204      -0.00000000       13.4008942       1.60344362    
   3.02249994E-02  -1.90476000      -0.00000000       13.4008942       1.60344362    
   0.00000000       0.00000000       0.00000000       13.4008942       1.60344362    
  0.150970995      -1.89900804      -0.00000000       13.4008942       1.60344362    
  0.330799997      -1.87605906      -0.00000000       44.1709328       1.58089495    
  0.271109998      -1.88560998      -0.00000000       44.1709328       1.58089495    
   0.00000000       0.00000000       0.00000000       44.1709328       1.58089495    
  0.390157014      -1.86461902      -0.00000000       44.1709328       1.58089495    
   0.00000000       0.00000000       0.00000000       28.6927776       1.58619356    
  0.271109998      -1.88560998      -0.00000000       28.6927776       1.58619356    
  0.211146995      -1.89326203      -0.00000000       28.6927776       1.58619356    
  0.150970995      -1.89900804      -0.00000000       28.6927776       1.58619356    
  0.449120998      -1.85130095      -0.00000000       59.8638725       1.57831478    
  0.390157014      -1.86461902      -0.00000000       59.8638725       1.57831478    
   0.00000000       0.00000000       0.00000000       59.8638725       1.57831478    
  0.507632971      -1.83611906      -0.00000000       59.8638725       1.57831478    
  0.679867983      -1.77955198      -0.00000000       92.6762848       1.57573020    
  0.623063982      -1.80022705      -0.00000000       92.6762848       1.57573020    
   0.00000000       0.00000000       0.00000000       92.6762848       1.57573020    
  0.735987008      -1.75708497      -0.00000000       92.6762848       1.57573020    
   0.00000000       0.00000000       0.00000000       75.9971466       1.57676840    
  0.623063982      -1.80022705      -0.00000000       75.9971466       1.57676840    
  0.565632999      -1.81908906      -0.00000000       75.9971466       1.57676840    
  0.507632971      -1.83611906      -0.00000000       75.9971466       1.57676840    
  0.791365981      -1.73284900      -0.00000000       110.067970       1.57497668    
  0.735987008      -1.75708497      -0.00000000       110.067970       1.57497668    
   0.00000000       0.00000000       0.00000000       110.067970       1.57497668    
  0.845947027      -1.70686805      -0.00000000       110.067970       1.57497668    
   1.00436401      -1.61872697      -0.00000000       147.304764       1.57394600    
  0.952499986      -1.64977801      -0.00000000       147.304764       1.57394600    
   0.00000000       0.00000000       0.00000000       147.304764       1.57394600    
   1.05521798      -1.58604598      -0.00000000       147.304764       1.57394600    
   0.00000000       0.00000000       0.00000000       128.284912       1.57440031    
  0.952499986      -1.64977801      -0.00000000       128.284912       1.57440031    
  0.899676025      -1.67916906      -0.00000000       128.284912       1.57440031    
  0.845947027      -1.70686805      -0.00000000       128.284912       1.57440031    
   1.10500801      -1.55176699      -0.00000000       166.845657       1.57358241    
   1.05521798      -1.58604598      -0.00000000       166.845657       1.57358241    
   0.00000000       0.00000000       0.00000000       166.845657       1.57358241    
   1.15368605      -1.51592600      -0.00000000       166.845657       1.57358241    
   1.29255998      -1.39939702      -0.00000000       205.039062       1.57306600    
   1.24750996      -1.43970299      -0.00000000       205.039062       1.57306600    
   0.00000000       0.00000000       0.00000000       205.039062       1.57306600    
   1.33631003      -1.35768199      -0.00000000       205.039062       1.57306600    
   0.00000000       0.00000000       0.00000000       186.410065       1.57329202    
   1.24750996      -1.43970299      -0.00000000       186.410065       1.57329202    
   1.20120299      -1.47855902      -0.00000000       186.410065       1.57329202    