 VARIABLES="X" "Y" "Z" "abs(p) (Pa)" "angle(p) (rad)"
ZONE N=    802,E =     800, F=FEPOINT, ET=QUADRILATERAL
   1.90499997       0.00000000      -0.00000000       10.5923643      -1.65001106    
   1.90404105      -6.04420006E-02  -0.00000000       10.5923643      -1.65001106    
   0.00000000       0.00000000       0.00000000       10.5923643      -1.65001106    
   1.90404105       6.04420006E-02  -0.00000000       10.5923643      -1.65001106    
   1.88967395      0.241159007      -0.00000000       590.128235      -1.55749881    
   1.89637399      0.181081995      -0.00000000       590.128235      -1.55749881    
   0.00000000       0.00000000       0.00000000       590.128235      -1.55749881    
   1.88107097      0.300992996      -0.00000000       590.128235      -1.55749881    
   0.00000000       0.00000000       0.00000000       298.680969      -1.55867743    
   1.89637399      0.181081995      -0.00000000       298.680969      -1.55867743    
   1.90116501      0.120823003      -0.00000000       298.680969      -1.55867743    
   1.90404105       6.04420006E-02  -0.00000000       298.680969      -1.55867743    
   1.87057400      0.360523999      -0.00000000       884.908997      -1.55754220    
   1.88107097      0.300992996      -0.00000000       884.908997      -1.55754220    
   0.00000000       0.00000000       0.00000000       884.908997      -1.55754220    
   1.85819399      0.419692010      -0.00000000       884.908997      -1.55754220    
   1.80988598      0.594424009      -0.00000000       1500.15405      -1.55942810    
   1.82783401      0.536701024      -0.00000000       1500.15405      -1.55942810    
   0.00000000       0.00000000       0.00000000       1500.15405      -1.55942810    
   1.79011405      0.651548028      -0.00000000       1500.15405      -1.55942810    
   0.00000000       0.00000000       0.00000000       1185.69543      -1.55813336    
   1.82783401      0.536701024      -0.00000000       1185.69543      -1.55813336    
   1.84394205      0.478437006      -0.00000000       1185.69543      -1.55813336    
   1.85819399      0.419692010      -0.00000000       1185.69543      -1.55813336    
   1.76854098      0.708016992      -0.00000000       1832.11743      -1.56127489    
   1.79011405      0.651548028      -0.00000000       1832.11743      -1.56127489    
   0.00000000       0.00000000       0.00000000       1832.11743      -1.56127489    
   1.74518704      0.763773024      -0.00000000       1832.11743      -1.56127489    
   1.66468298      0.926204979      -0.00000000       2561.43140      -1.56642795    
   1.69323206      0.872922003      -0.00000000       2561.43140      -1.56642795    
   0.00000000       0.00000000       0.00000000       2561.43140      -1.56642795    
   1.63445795      0.978555024      -0.00000000       2561.43140      -1.56642795    
   0.00000000       0.00000000       0.00000000       2185.69336      -1.56366158    
   1.69323206      0.872922003      -0.00000000       2185.69336      -1.56366158    
   1.72007501      0.818759024      -0.00000000       2185.69336      -1.56366158    
   1.74518704      0.763773024      -0.00000000       2185.69336      -1.56366158    
   1.60258806       1.02992105      -0.00000000       2957.09058      -1.56940472    
   1.63445795      0.978555024      -0.00000000       2957.09058      -1.56940472    
   0.00000000       0.00000000       0.00000000       2957.09058      -1.56940472    
   1.56910396       1.08024895      -0.00000000       2957.09058      -1.56940472    
   1.45931494       1.22450995      -0.00000000       3737.34888      -1.57451737    
   1.49743104       1.17759299      -0.00000000       3737.34888      -1.57451737    
   0.00000000       0.00000000       0.00000000       3737.34888      -1.57451737    
   1.41972899       1.27019501      -0.00000000       3737.34888      -1.57451737    
   0.00000000       0.00000000       0.00000000       3358.07080      -1.57224822    
   1.49743104       1.17759299      -0.00000000       3358.07080      -1.57224822    
   1.53403997       1.12949002      -0.00000000       3358.07080      -1.57224822    
   1.56910396       1.08024895      -0.00000000       3358.07080      -1.57224822    
   1.37871301       1.31459999      -0.00000000       4004.07837      -1.57459390    
   1.41972899       1.27019501      -0.00000000       4004.07837      -1.57459390    
   0.00000000       0.00000000       0.00000000       4004.07837      -1.57459390    
   1.33631003       1.35768199      -0.00000000       4004.07837      -1.57459390    
   1.20120299       1.47855902      -0.00000000       3974.19531      -1.56440818    
   1.24750996       1.43970299      -0.00000000       3974.19531      -1.56440818    
   0.00000000       0.00000000       0.00000000       3974.19531      -1.56440818    
   1.15368605       1.51592600      -0.00000000       3974.19531      -1.56440818    
   0.00000000       0.00000000       0.00000000       4047.42871      -1.57053268    
   1.24750996       1.43970299      -0.00000000       4047.42871      -1.57053268    
   1.29255998       1.39939702      -0.00000000       4047.42871      -1.57053268    
   1.33631003       1.35768199      -0.00000000       4047.42871      -1.57053268    
   1.10500801       1.55176699      -0.00000000       3881.06763      -1.55808520    
   1.15368605       1.51592600      -0.00000000       3881.06763      -1.55808520    
   0.00000000       0.00000000       0.00000000       3881.06763      -1.55808520    
   1.05521798       1.58604598      -0.00000000       3881.06763      -1.55808520    
  0.899676025       1.67916906      -0.00000000       3737.05688      -1.54707217    
  0.952499986       1.64977801      -0.00000000       3737.05688      -1.54707217    
   0.00000000       0.00000000       0.00000000       3737.05688      -1.54707217    
  0.845947027       1.70686805      -0.00000000       3737.05688      -1.54707217    
   0.00000000       0.00000000       0.00000000       3798.11694      -1.55218744    
  0.952499986       1.64977801      -0.00000000       3798.11694      -1.55218744    
   1.00436401       1.61872697      -0.00000000       3798.11694      -1.55218744    
   1.05521798       1.58604598      -0.00000000       3798.11694      -1.55218744    
  0.791365981       1.73284900      -0.00000000       3700.15332      -1.54290533    
  0.845947027       1.70686805      -0.00000000       3700.15332      -1.54290533    
   0.00000000       0.00000000       0.00000000       3700.15332      -1.54290533    
  0.735987008       1.75708497      -0.00000000       3700.15332      -1.54290533    
  0.565632999       1.81908906      -0.00000000       3686.67114      -1.53738928    
  0.623063982       1.80022705      -0.00000000       3686.67114      -1.53738928    
   0.00000000       0.00000000       0.00000000       3686.67114      -1.53738928    
  0.507632971       1.83611906      -0.00000000       3686.67114      -1.53738928    
   0.00000000       0.00000000       0.00000000       3685.23340      -1.53971505    
  0.623063982       1.80022705      -0.00000000       3685.23340      -1.53971505    
  0.679867983       1.77955198      -0.00000000       3685.23340      -1.53971505    
  0.735987008       1.75708497      -0.00000000       3685.23340      -1.53971505    
  0.449120998       1.85130095      -0.00000000       3697.89893      -1.53578818    
  0.507632971       1.83611906      -0.00000000       3697.89893      -1.53578818    
   0.00000000       0.00000000       0.00000000       3697.89893      -1.53578818    
  0.390157014       1.86461902      -0.00000000       3697.89893      -1.53578818    
  0.211146995       1.89326203      -0.00000000       3726.77075      -1.53410840    
  0.271109998       1.88560998      -0.00000000       3726.77075      -1.53410840    
   0.00000000       0.00000000       0.00000000       3726.77075      -1.53410840    
  0.150970995       1.89900804      -0.00000000       3726.77075      -1.53410840    
   0.00000000       0.00000000       0.00000000       3711.65991      -1.53470540    
  0.271109998       1.88560998      -0.00000000       3711.65991      -1.53470540    
  0.330799997       1.87605906      -0.00000000       3711.65991      -1.53470540    
  0.390157014       1.86461902      -0.00000000       3711.65991      -1.53470540    
   9.06440020E-02   1.90284204      -0.00000000       3738.48706      -1.53387403    
  0.150970995       1.89900804      -0.00000000       3738.48706      -1.53387403    
   0.00000000       0.00000000       0.00000000       3738.48706      -1.53387403    
   3.02249994E-02   1.90476000      -0.00000000       3738.48706      -1.53387403    
 -0.150970995       1.89900804      -0.00000000       3742.38062      -1.53423274    
  -9.06440020E-02   1.90284204      -0.00000000       3742.38062      -1.53423274    
   0.00000000       0.00000000       0.00000000       3742.38062      -1.53423274    
 -0.211146995       1.89326203      -0.00000000       3742.38062      -1.53423274    
   0.00000000       0.00000000       0.00000000       3743.49756      -1.53391075    
  -9.06440020E-02   1.90284204      -0.00000000       3743.49756      -1.53391075    
  -3.02249994E-02   1.90476000      -0.00000000       3743.49756      -1.53391075    
   3.02249994E-02   1.90476000      -0.00000000       3743.49756      -1.53391075    
 -0.271109998       1.88560998      -0.00000000       3740.38184      -1.53496790    
 -0.211146995       1.89326203      -0.00000000       3740.38184      -1.53496790    
   0.00000000       0.00000000       0.00000000       3740.38184      -1.53496790    
 -0.330799997       1.87605906      -0.00000000       3740.38184      -1.53496790    
 -0.507632971       1.83611906      -0.00000000       3742.34326      -1.53790891    
 -0.449120998       1.85130095      -0.00000000       3742.34326      -1.53790891    
   0.00000000       0.00000000       0.00000000       3742.34326      -1.53790891    
 -0.565632999       1.81908906      -0.00000000       3742.34326      -1.53790891    
   0.00000000       0.00000000       0.00000000       3739.41968      -1.53617167    
 -0.449120998       1.85130095      -0.00000000       3739.41968      -1.53617167    
 -0.390157014       1.86461902      -0.00000000       3739.41968      -1.53617167    
 -0.330799997       1.87605906      -0.00000000       3739.41968      -1.53617167    
 -0.623063982       1.80022705      -0.00000000       3757.65430      -1.54039621    
 -0.565632999       1.81908906      -0.00000000       3757.65430      -1.54039621    
   0.00000000       0.00000000       0.00000000       3757.65430      -1.54039621    
 -0.679867983       1.77955198      -0.00000000       3757.65430      -1.54039621    
 -0.845947027       1.70686805      -0.00000000       3843.80908      -1.54794657    
 -0.791365981       1.73284900      -0.00000000       3843.80908      -1.54794657    
   0.00000000       0.00000000       0.00000000       3843.80908      -1.54794657    
 -0.899676025       1.67916906      -0.00000000       3843.80908      -1.54794657    
   0.00000000       0.00000000       0.00000000       3789.83545      -1.54371440    
 -0.791365981       1.73284900      -0.00000000       3789.83545      -1.54371440    
 -0.735987008       1.75708497      -0.00000000       3789.83545      -1.54371440    
 -0.679867983       1.77955198      -0.00000000       3789.83545      -1.54371440    
 -0.952499986       1.64977801      -0.00000000       3920.17090      -1.55302691    
 -0.899676025       1.67916906      -0.00000000       3920.17090      -1.55302691    
   0.00000000       0.00000000       0.00000000       3920.17090      -1.55302691    
  -1.00436401       1.61872697      -0.00000000       3920.17090      -1.55302691    
  -1.15368605       1.51592600      -0.00000000       4113.31641      -1.56482804    
  -1.10500801       1.55176699      -0.00000000       4113.31641      -1.56482804    
   0.00000000       0.00000000       0.00000000       4113.31641      -1.56482804    
  -1.20120299       1.47855902      -0.00000000       4113.31641      -1.56482804    
   0.00000000       0.00000000       0.00000000       4015.52856      -1.55878270    
  -1.10500801       1.55176699      -0.00000000       4015.52856      -1.55878270    
  -1.05521798       1.58604598      -0.00000000       4015.52856      -1.55878270    
  -1.00436401       1.61872697      -0.00000000       4015.52856      -1.55878270    
  -1.24750996       1.43970299      -0.00000000       4185.66992      -1.57063568    
  -1.20120299       1.47855902      -0.00000000       4185.66992      -1.57063568    
   0.00000000       0.00000000       0.00000000       4185.66992      -1.57063568    
  -1.29255998       1.39939702      -0.00000000       4185.66992      -1.57063568    
  -1.41972899       1.27019501      -0.00000000       3862.61304      -1.57424986    
  -1.37871301       1.31459999      -0.00000000       3862.61304      -1.57424986    
   0.00000000       0.00000000       0.00000000       3862.61304      -1.57424986    
  -1.45931494       1.22450995      -0.00000000       3862.61304      -1.57424986    
   0.00000000       0.00000000       0.00000000       4139.77734      -1.57449985    
  -1.37871301       1.31459999      -0.00000000       4139.77734      -1.57449985    
  -1.33631003       1.35768199      -0.00000000       4139.77734      -1.57449985    
  -1.29255998       1.39939702      -0.00000000       4139.77734      -1.57449985    
  -1.49743104       1.17759299      -0.00000000       3466.71826      -1.57168448    
  -1.45931494       1.22450995      -0.00000000       3466.71826      -1.57168448    
   0.00000000       0.00000000       0.00000000       3466.71826      -1.57168448    
  -1.53403997       1.12949002      -0.00000000       3466.71826      -1.57168448    
  -1.63445795      0.978555024      -0.00000000       2652.19922      -1.56524229    
  -1.60258806       1.02992105      -0.00000000       2652.19922      -1.56524229    
   0.00000000       0.00000000       0.00000000       2652.19922      -1.56524229    
  -1.66468298      0.926204979      -0.00000000       2652.19922      -1.56524229    
   0.00000000       0.00000000       0.00000000       3052.69678      -1.56849790    
  -1.60258806       1.02992105      -0.00000000       3052.69678      -1.56849790    
  -1.56910396       1.08024895      -0.00000000       3052.69678      -1.56849790    
  -1.53403997       1.12949002      -0.00000000       3052.69678      -1.56849790    
  -1.69323206      0.872922003      -0.00000000       2276.31055      -1.56223893    
  -1.66468298      0.926204979      -0.00000000       2276.31055      -1.56223893    
   0.00000000       0.00000000       0.00000000       2276.31055      -1.56223893    
  -1.72007501      0.818759024      -0.00000000       2276.31055      -1.56223893    
  -1.79011405      0.651548028      -0.00000000       1599.18811      -1.55768335    
  -1.76854098      0.708016992      -0.00000000       1599.18811      -1.55768335    
   0.00000000       0.00000000       0.00000000       1599.18811      -1.55768335    
  -1.80988598      0.594424009      -0.00000000       1599.18811      -1.55768335    
   0.00000000       0.00000000       0.00000000       1925.60278      -1.55965936    
  -1.76854098      0.708016992      -0.00000000       1925.60278      -1.55965936    
  -1.74518704      0.763773024      -0.00000000       1925.60278      -1.55965936    
  -1.72007501      0.818759024      -0.00000000       1925.60278      -1.55965936    
  -1.82783401      0.536701024      -0.00000000       1291.11597      -1.55628765    
  -1.80988598      0.594424009      -0.00000000       1291.11597      -1.55628765    
   0.00000000       0.00000000       0.00000000       1291.11597      -1.55628765    
  -1.84394205      0.478437006      -0.00000000       1291.11597      -1.55628765    
  -1.88107097      0.300992996      -0.00000000       703.475281      -1.55481327    
  -1.87057400      0.360523999      -0.00000000       703.475281      -1.55481327    
   0.00000000       0.00000000       0.00000000       703.475281      -1.55481327    
  -1.88967395      0.241159007      -0.00000000       703.475281      -1.55481327    
   0.00000000       0.00000000       0.00000000       994.766479      -1.55542600    
  -1.87057400      0.360523999      -0.00000000       994.766479      -1.55542600    
  -1.85819399      0.419692010      -0.00000000       994.766479      -1.55542600    
  -1.84394205      0.478437006      -0.00000000       994.766479      -1.55542600    
  -1.89637399      0.181081995      -0.00000000       415.649933      -1.55442500    
  -1.88967395      0.241159007      -0.00000000       415.649933      -1.55442500    
   0.00000000       0.00000000       0.00000000       415.649933      -1.55442500    
  -1.90116501      0.120823003      -0.00000000       415.649933      -1.55442500    
  -1.90404105      -6.04420006E-02  -0.00000000       157.682648       1.58571231    
  -1.90499997       0.00000000      -0.00000000       157.682648       1.58571231    
   0.00000000       0.00000000       0.00000000       157.682648       1.58571231    
  -1.90116501     -0.120823003      -0.00000000       157.682648       1.58571231    
   0.00000000       0.00000000       0.00000000       129.081650      -1.55356908    
  -1.90499997       0.00000000      -0.00000000       129.081650      -1.55356908    
  -1.90404105       6.04420006E-02  -0.00000000       129.081650      -1.55356908    
  -1.90116501      0.120823003      -0.00000000       129.081650      -1.55356908    
  -1.89637399     -0.181081995      -0.00000000       444.590332       1.58633363    
  -1.90116501     -0.120823003      -0.00000000       444.590332       1.58633363    
   0.00000000       0.00000000       0.00000000       444.590332       1.58633363    
  -1.88967395     -0.241159007      -0.00000000       444.590332       1.58633363    
  -1.85819399     -0.419692010      -0.00000000       1025.17310       1.58569312    
  -1.87057400     -0.360523999      -0.00000000       1025.17310       1.58569312    
   0.00000000       0.00000000       0.00000000       1025.17310       1.58569312    
  -1.84394205     -0.478437006      -0.00000000       1025.17310       1.58569312    
   0.00000000       0.00000000       0.00000000       733.087036       1.58620930    
  -1.87057400     -0.360523999      -0.00000000       733.087036       1.58620930    
  -1.88107097     -0.300992996      -0.00000000       733.087036       1.58620930    
  -1.88967395     -0.241159007      -0.00000000       733.087036       1.58620930    
  -1.82783401     -0.536701024      -0.00000000       1323.48035       1.58483732    
  -1.84394205     -0.478437006      -0.00000000       1323.48035       1.58483732    
   0.00000000       0.00000000       0.00000000       1323.48035       1.58483732    
  -1.80988598     -0.594424009      -0.00000000       1323.48035       1.58483732    
  -1.74518704     -0.763773024      -0.00000000       1965.79688       1.58139110    
  -1.76854098     -0.708016992      -0.00000000       1965.79688       1.58139110    
   0.00000000       0.00000000       0.00000000       1965.79688       1.58139110    
  -1.72007501     -0.818759024      -0.00000000       1965.79688       1.58139110    
   0.00000000       0.00000000       0.00000000       1635.59070       1.58338714    
  -1.76854098     -0.708016992      -0.00000000       1635.59070       1.58338714    
  -1.79011405     -0.651548028      -0.00000000       1635.59070       1.58338714    
  -1.80988598     -0.594424009      -0.00000000       1635.59070       1.58338714    
  -1.69323206     -0.872922003      -0.00000000       2318.11035       1.57886350    
  -1.72007501     -0.818759024      -0.00000000       2318.11035       1.57886350    
   0.00000000       0.00000000       0.00000000       2318.11035       1.57886350    
  -1.66468298     -0.926204979      -0.00000000       2318.11035       1.57886350    
  -1.56910396      -1.08024895      -0.00000000       3091.53198       1.57278907    
  -1.60258806      -1.02992105      -0.00000000       3091.53198       1.57278907    
   0.00000000       0.00000000       0.00000000       3091.53198       1.57278907    
  -1.53403997      -1.12949002      -0.00000000       3091.53198       1.57278907    
   0.00000000       0.00000000       0.00000000       2693.98755       1.57593608    
  -1.60258806      -1.02992105      -0.00000000       2693.98755       1.57593608    
  -1.63445795     -0.978555024      -0.00000000       2693.98755       1.57593608    
  -1.66468298     -0.926204979      -0.00000000       2693.98755       1.57593608    
  -1.49743104      -1.17759299      -0.00000000       3495.20630       1.56976748    
  -1.53403997      -1.12949002      -0.00000000       3495.20630       1.56976748    
   0.00000000       0.00000000       0.00000000       3495.20630       1.56976748    
  -1.45931494      -1.22450995      -0.00000000       3495.20630       1.56976748    
  -1.33631003      -1.35768199      -0.00000000       4140.51270       1.56715274    
  -1.37871301      -1.31459999      -0.00000000       4140.51270       1.56715274    
   0.00000000       0.00000000       0.00000000       4140.51270       1.56715274    
  -1.29255998      -1.39939702      -0.00000000       4140.51270       1.56715274    
   0.00000000       0.00000000       0.00000000       3876.38110       1.56734526    
  -1.37871301      -1.31459999      -0.00000000       3876.38110       1.56734526    
  -1.41972899      -1.27019501      -0.00000000       3876.38110       1.56734526    
  -1.45931494      -1.22450995      -0.00000000       3876.38110       1.56734526    
  -1.24750996      -1.43970299      -0.00000000       4174.26221       1.57112026    
  -1.29255998      -1.39939702      -0.00000000       4174.26221       1.57112026    
   0.00000000       0.00000000       0.00000000       4174.26221       1.57112026    
  -1.20120299      -1.47855902      -0.00000000       4174.26221       1.57112026    
  -1.05521798      -1.58604598      -0.00000000       3982.84863       1.58341503    
  -1.10500801      -1.55176699      -0.00000000       3982.84863       1.58341503    
   0.00000000       0.00000000       0.00000000       3982.84863       1.58341503    
  -1.00436401      -1.61872697      -0.00000000       3982.84863       1.58341503    
   0.00000000       0.00000000       0.00000000       4088.78320       1.57715285    
  -1.10500801      -1.55176699      -0.00000000       4088.78320       1.57715285    
  -1.15368605      -1.51592600      -0.00000000       4088.78320       1.57715285    
  -1.20120299      -1.47855902      -0.00000000       4088.78320       1.57715285    
 -0.952499986      -1.64977801      -0.00000000       3887.58643       1.58927488    
  -1.00436401      -1.61872697      -0.00000000       3887.58643       1.58927488    
   0.00000000       0.00000000       0.00000000       3887.58643       1.58927488    
 -0.899676025      -1.67916906      -0.00000000       3887.58643       1.58927488    
 -0.735987008      -1.75708497      -0.00000000       3767.01538       1.59855402    
 -0.791365981      -1.73284900      -0.00000000       3767.01538       1.59855402    
   0.00000000       0.00000000       0.00000000       3767.01538       1.59855402    
 -0.679867983      -1.77955198      -0.00000000       3767.01538       1.59855402    
   0.00000000       0.00000000       0.00000000       3814.90552       1.59437609    
 -0.791365981      -1.73284900      -0.00000000       3814.90552       1.59437609    
 -0.845947027      -1.70686805      -0.00000000       3814.90552       1.59437609    
 -0.899676025      -1.67916906      -0.00000000       3814.90552       1.59437609    
 -0.623063982      -1.80022705      -0.00000000       3741.79248       1.60176969    
 -0.679867983      -1.77955198      -0.00000000       3741.79248       1.60176969    
   0.00000000       0.00000000       0.00000000       3741.79248       1.60176969    
 -0.565632999      -1.81908906      -0.00000000       3741.79248       1.60176969    
 -0.390157014      -1.86461902      -0.00000000       3734.73438       1.60578644    
 -0.449120998      -1.85130095      -0.00000000       3734.73438       1.60578644    
   0.00000000       0.00000000       0.00000000       3734.73438       1.60578644    
 -0.330799997      -1.87605906      -0.00000000       3734.73438       1.60578644    
   0.00000000       0.00000000       0.00000000       3733.23145       1.60413575    
 -0.449120998      -1.85130095      -0.00000000       3733.23145       1.60413575    
 -0.507632971      -1.83611906      -0.00000000       3733.23145       1.60413575    
 -0.565632999      -1.81908906      -0.00000000       3733.23145       1.60413575    
 -0.271109998      -1.88560998      -0.00000000       3738.81519       1.60692871    
 -0.330799997      -1.87605906      -0.00000000       3738.81519       1.60692871    
   0.00000000       0.00000000       0.00000000       3738.81519       1.60692871    
 -0.211146995      -1.89326203      -0.00000000       3738.81519       1.60692871    
  -3.02249994E-02  -1.90476000      -0.00000000       3746.00439       1.60790443    
  -9.06440020E-02  -1.90284204      -0.00000000       3746.00439       1.60790443    
   0.00000000       0.00000000       0.00000000       3746.00439       1.60790443    
   3.02249994E-02  -1.90476000      -0.00000000       3746.00439       1.60790443    
   0.00000000       0.00000000       0.00000000       3744.16895       1.60759437    
  -9.06440020E-02  -1.90284204      -0.00000000       3744.16895       1.60759437    
 -0.150970995      -1.89900804      -0.00000000       3744.16895       1.60759437    
 -0.211146995      -1.89326203      -0.00000000       3744.16895       1.60759437    
   9.06440020E-02  -1.90284204      -0.00000000       3741.05688       1.60794473    
   3.02249994E-02  -1.90476000      -0.00000000       3741.05688       1.60794473    
   0.00000000       0.00000000       0.00000000       3741.05688       1.60794473    
  0.150970995      -1.89900804      -0.00000000       3741.05688       1.60794473    
  0.330799997      -1.87605906      -0.00000000       3718.50635       1.60702920    
  0.271109998      -1.88560998      -0.00000000       3718.50635       1.60702920    
   0.00000000       0.00000000       0.00000000       3718.50635       1.60702920    
  0.390157014      -1.86461902      -0.00000000       3718.50635       1.60702920    
   0.00000000       0.00000000       0.00000000       3730.13013       1.60769856    
  0.271109998      -1.88560998      -0.00000000       3730.13013       1.60769856    
  0.211146995      -1.89326203      -0.00000000       3730.13013       1.60769856    
  0.150970995      -1.89900804      -0.00000000       3730.13013       1.60769856    
  0.449120998      -1.85130095      -0.00000000       3708.00269       1.60588062    
  0.390157014      -1.86461902      -0.00000000       3708.00269       1.60588062    
   0.00000000       0.00000000       0.00000000       3708.00269       1.60588062    
  0.507632971      -1.83611906      -0.00000000       3708.00269       1.60588062    
  0.679867983      -1.77955198      -0.00000000       3706.90234       1.60173619    
  0.623063982      -1.80022705      -0.00000000       3706.90234       1.60173619    
   0.00000000       0.00000000       0.00000000       3706.90234       1.60173619    
  0.735987008      -1.75708497      -0.00000000       3706.90234       1.60173619    
   0.00000000       0.00000000       0.00000000       3701.34863       1.60418999    
  0.623063982      -1.80022705      -0.00000000       3701.34863       1.60418999    
  0.565632999      -1.81908906      -0.00000000       3701.34863       1.60418999    
  0.507632971      -1.83611906      -0.00000000       3701.34863       1.60418999    
  0.791365981      -1.73284900      -0.00000000       3728.95435       1.59843826    
  0.735987008      -1.75708497      -0.00000000       3728.95435       1.59843826    
   0.00000000       0.00000000       0.00000000       3728.95435       1.59843826    
  0.845947027      -1.70686805      -0.00000000       3728.95435       1.59843826    
   1.00436401      -1.61872697      -0.00000000       3837.40308       1.58910227    
  0.952499986      -1.64977801      -0.00000000       3837.40308       1.58910227    
   0.00000000       0.00000000       0.00000000       3837.40308       1.58910227    
   1.05521798      -1.58604598      -0.00000000       3837.40308       1.58910227    
   0.00000000       0.00000000       0.00000000       3772.26123       1.59420490    
  0.952499986      -1.64977801      -0.00000000       3772.26123       1.59420490    
  0.899676025      -1.67916906      -0.00000000       3772.26123       1.59420490    
  0.845947027      -1.70686805      -0.00000000       3772.26123       1.59420490    
   1.10500801      -1.55176699      -0.00000000       3920.78540       1.58329940    
   1.05521798      -1.58604598      -0.00000000       3920.78540       1.58329940    
   0.00000000       0.00000000       0.00000000       3920.78540       1.58329940    
   1.15368605      -1.51592600      -0.00000000       3920.78540       1.58329940    
   1.29255998      -1.39939702      -0.00000000       4067.81567       1.57127726    
   1.24750996      -1.43970299      -0.00000000       4067.81567       1.57127726    
   0.00000000       0.00000000       0.00000000       4067.81567       1.57127726    
   1.33631003      -1.35768199      -0.00000000       4067.81567       1.57127726    
   0.00000000       0.00000000       0.00000000       4006.54858       1.57718194    
   1.24750996      -1.43970299      -0.00000000       4006.54858       1.57718194    
   1.20120299      -1.47855902      -0.00000000       4006.54858       1.57718194    