 VARIABLES="X" "Y" "Z" "abs(p) (Pa)" "angle(p) (rad)"
ZONE N=    802,E =     800, F=FEPOINT, ET=QUADRILATERAL
   1.90499997       0.00000000      -0.00000000       5.01906538      -1.60356677    
   1.90404105      -6.04420006E-02  -0.00000000       5.01906538      -1.60356677    
   0.00000000       0.00000000       0.00000000       5.01906538      -1.60356677    
   1.90404105       6.04420006E-02  -0.00000000       5.01906538      -1.60356677    
   1.88967395      0.241159007      -0.00000000       270.858643      -1.57047021    
   1.89637399      0.181081995      -0.00000000       270.858643      -1.57047021    
   0.00000000       0.00000000       0.00000000       270.858643      -1.57047021    
   1.88107097      0.300992996      -0.00000000       270.858643      -1.57047021    
   0.00000000       0.00000000       0.00000000       137.276566      -1.57106388    
   1.89637399      0.181081995      -0.00000000       137.276566      -1.57106388    
   1.90116501      0.120823003      -0.00000000       137.276566      -1.57106388    
   1.90404105       6.04420006E-02  -0.00000000       137.276566      -1.57106388    
   1.87057400      0.360523999      -0.00000000       406.557281      -1.57028186    
   1.88107097      0.300992996      -0.00000000       406.557281      -1.57028186    
   0.00000000       0.00000000       0.00000000       406.557281      -1.57028186    
   1.85819399      0.419692010      -0.00000000       406.557281      -1.57028186    
   1.80988598      0.594424009      -0.00000000       690.312500      -1.57017922    
   1.82783401      0.536701024      -0.00000000       690.312500      -1.57017922    
   0.00000000       0.00000000       0.00000000       690.312500      -1.57017922    
   1.79011405      0.651548028      -0.00000000       690.312500      -1.57017922    
   0.00000000       0.00000000       0.00000000       546.193909      -1.57020473    
   1.82783401      0.536701024      -0.00000000       546.193909      -1.57020473    
   1.84394205      0.478437006      -0.00000000       546.193909      -1.57020473    
   1.85819399      0.419692010      -0.00000000       546.193909      -1.57020473    
   1.76854098      0.708016992      -0.00000000       840.419617      -1.57018161    
   1.79011405      0.651548028      -0.00000000       840.419617      -1.57018161    
   0.00000000       0.00000000       0.00000000       840.419617      -1.57018161    
   1.74518704      0.763773024      -0.00000000       840.419617      -1.57018161    
   1.66468298      0.926204979      -0.00000000       1162.35071      -1.57024145    
   1.69323206      0.872922003      -0.00000000       1162.35071      -1.57024145    
   0.00000000       0.00000000       0.00000000       1162.35071      -1.57024145    
   1.63445795      0.978555024      -0.00000000       1162.35071      -1.57024145    
   0.00000000       0.00000000       0.00000000       997.938904      -1.57020569    
   1.69323206      0.872922003      -0.00000000       997.938904      -1.57020569    
   1.72007501      0.818759024      -0.00000000       997.938904      -1.57020569    
   1.74518704      0.763773024      -0.00000000       997.938904      -1.57020569    
   1.60258806       1.02992105      -0.00000000       1331.49231      -1.57028437    
   1.63445795      0.978555024      -0.00000000       1331.49231      -1.57028437    
   0.00000000       0.00000000       0.00000000       1331.49231      -1.57028437    
   1.56910396       1.08024895      -0.00000000       1331.49231      -1.57028437    
   1.45931494       1.22450995      -0.00000000       1662.10498      -1.57036209    
   1.49743104       1.17759299      -0.00000000       1662.10498      -1.57036209    
   0.00000000       0.00000000       0.00000000       1662.10498      -1.57036209    
   1.41972899       1.27019501      -0.00000000       1662.10498      -1.57036209    
   0.00000000       0.00000000       0.00000000       1500.84937      -1.57032716    
   1.49743104       1.17759299      -0.00000000       1500.84937      -1.57032716    
   1.53403997       1.12949002      -0.00000000       1500.84937      -1.57032716    
   1.56910396       1.08024895      -0.00000000       1500.84937      -1.57032716    
   1.37871301       1.31459999      -0.00000000       1781.56006      -1.57035458    
   1.41972899       1.27019501      -0.00000000       1781.56006      -1.57035458    
   0.00000000       0.00000000       0.00000000       1781.56006      -1.57035458    
   1.33631003       1.35768199      -0.00000000       1781.56006      -1.57035458    
   1.20120299       1.47855902      -0.00000000       1807.02332      -1.57013702    
   1.24750996       1.43970299      -0.00000000       1807.02332      -1.57013702    
   0.00000000       0.00000000       0.00000000       1807.02332      -1.57013702    
   1.15368605       1.51592600      -0.00000000       1807.02332      -1.57013702    
   0.00000000       0.00000000       0.00000000       1816.08313      -1.57026517    
   1.24750996       1.43970299      -0.00000000       1816.08313      -1.57026517    
   1.29255998       1.39939702      -0.00000000       1816.08313      -1.57026517    
   1.33631003       1.35768199      -0.00000000       1816.08313      -1.57026517    
   1.10500801       1.55176699      -0.00000000       1790.80957      -1.57000935    
   1.15368605       1.51592600      -0.00000000       1790.80957      -1.57000935    
   0.00000000       0.00000000       0.00000000       1790.80957      -1.57000935    
   1.05521798       1.58604598      -0.00000000       1790.80957      -1.57000935    
  0.899676025       1.67916906      -0.00000000       1766.93188      -1.56979096    
  0.952499986       1.64977801      -0.00000000       1766.93188      -1.56979096    
   0.00000000       0.00000000       0.00000000       1766.93188      -1.56979096    
  0.845947027       1.70686805      -0.00000000       1766.93188      -1.56979096    
   0.00000000       0.00000000       0.00000000       1776.09485      -1.56989205    
  0.952499986       1.64977801      -0.00000000       1776.09485      -1.56989205    
   1.00436401       1.61872697      -0.00000000       1776.09485      -1.56989205    
   1.05521798       1.58604598      -0.00000000       1776.09485      -1.56989205    
  0.791365981       1.73284900      -0.00000000       1763.68115      -1.56970763    
  0.845947027       1.70686805      -0.00000000       1763.68115      -1.56970763    
   0.00000000       0.00000000       0.00000000       1763.68115      -1.56970763    
  0.735987008       1.75708497      -0.00000000       1763.68115      -1.56970763    
  0.565632999       1.81908906      -0.00000000       1771.22339      -1.56959176    
  0.623063982       1.80022705      -0.00000000       1771.22339      -1.56959176    
   0.00000000       0.00000000       0.00000000       1771.22339      -1.56959176    
  0.507632971       1.83611906      -0.00000000       1771.22339      -1.56959176    
   0.00000000       0.00000000       0.00000000       1765.56824      -1.56964171    
  0.623063982       1.80022705      -0.00000000       1765.56824      -1.56964171    
  0.679867983       1.77955198      -0.00000000       1765.56824      -1.56964171    
  0.735987008       1.75708497      -0.00000000       1765.56824      -1.56964171    
  0.449120998       1.85130095      -0.00000000       1779.23206      -1.56955636    
  0.507632971       1.83611906      -0.00000000       1779.23206      -1.56955636    
   0.00000000       0.00000000       0.00000000       1779.23206      -1.56955636    
  0.390157014       1.86461902      -0.00000000       1779.23206      -1.56955636    
  0.211146995       1.89326203      -0.00000000       1794.53809      -1.56951749    
  0.271109998       1.88560998      -0.00000000       1794.53809      -1.56951749    
   0.00000000       0.00000000       0.00000000       1794.53809      -1.56951749    
  0.150970995       1.89900804      -0.00000000       1794.53809      -1.56951749    
   0.00000000       0.00000000       0.00000000       1787.71582      -1.56953239    
  0.271109998       1.88560998      -0.00000000       1787.71582      -1.56953239    
  0.330799997       1.87605906      -0.00000000       1787.71582      -1.56953239    
  0.390157014       1.86461902      -0.00000000       1787.71582      -1.56953239    
   9.06440020E-02   1.90284204      -0.00000000       1799.45923      -1.56951082    
  0.150970995       1.89900804      -0.00000000       1799.45923      -1.56951082    
   0.00000000       0.00000000       0.00000000       1799.45923      -1.56951082    
   3.02249994E-02   1.90476000      -0.00000000       1799.45923      -1.56951082    
 -0.150970995       1.89900804      -0.00000000       1802.34570      -1.56952071    
  -9.06440020E-02   1.90284204      -0.00000000       1802.34570      -1.56952071    
   0.00000000       0.00000000       0.00000000       1802.34570      -1.56952071    
 -0.211146995       1.89326203      -0.00000000       1802.34570      -1.56952071    
   0.00000000       0.00000000       0.00000000       1802.03174      -1.56951213    
  -9.06440020E-02   1.90284204      -0.00000000       1802.03174      -1.56951213    
  -3.02249994E-02   1.90476000      -0.00000000       1802.03174      -1.56951213    
   3.02249994E-02   1.90476000      -0.00000000       1802.03174      -1.56951213    
 -0.271109998       1.88560998      -0.00000000       1800.73438      -1.56953800    
 -0.211146995       1.89326203      -0.00000000       1800.73438      -1.56953800    
   0.00000000       0.00000000       0.00000000       1800.73438      -1.56953800    
 -0.330799997       1.87605906      -0.00000000       1800.73438      -1.56953800    
 -0.507632971       1.83611906      -0.00000000       1797.48877      -1.56960404    
 -0.449120998       1.85130095      -0.00000000       1797.48877      -1.56960404    
   0.00000000       0.00000000       0.00000000       1797.48877      -1.56960404    
 -0.565632999       1.81908906      -0.00000000       1797.48877      -1.56960404    
   0.00000000       0.00000000       0.00000000       1798.26794      -1.56956494    
 -0.449120998       1.85130095      -0.00000000       1798.26794      -1.56956494    
 -0.390157014       1.86461902      -0.00000000       1798.26794      -1.56956494    
 -0.330799997       1.87605906      -0.00000000       1798.26794      -1.56956494    
 -0.623063982       1.80022705      -0.00000000       1799.12024      -1.56965768    
 -0.565632999       1.81908906      -0.00000000       1799.12024      -1.56965768    
   0.00000000       0.00000000       0.00000000       1799.12024      -1.56965768    
 -0.679867983       1.77955198      -0.00000000       1799.12024      -1.56965768    
 -0.845947027       1.70686805      -0.00000000       1815.35889      -1.56981218    
 -0.791365981       1.73284900      -0.00000000       1815.35889      -1.56981218    
   0.00000000       0.00000000       0.00000000       1815.35889      -1.56981218    
 -0.899676025       1.67916906      -0.00000000       1815.35889      -1.56981218    
   0.00000000       0.00000000       0.00000000       1804.63159      -1.56972647    
 -0.791365981       1.73284900      -0.00000000       1804.63159      -1.56972647    
 -0.735987008       1.75708497      -0.00000000       1804.63159      -1.56972647    
 -0.679867983       1.77955198      -0.00000000       1804.63159      -1.56972647    
 -0.952499986       1.64977801      -0.00000000       1831.24756      -1.56991315    
 -0.899676025       1.67916906      -0.00000000       1831.24756      -1.56991315    
   0.00000000       0.00000000       0.00000000       1831.24756      -1.56991315    
  -1.00436401       1.61872697      -0.00000000       1831.24756      -1.56991315    
  -1.15368605       1.51592600      -0.00000000       1868.61316      -1.57014871    
  -1.10500801       1.55176699      -0.00000000       1868.61316      -1.57014871    
   0.00000000       0.00000000       0.00000000       1868.61316      -1.57014871    
  -1.20120299       1.47855902      -0.00000000       1868.61316      -1.57014871    
   0.00000000       0.00000000       0.00000000       1850.41528      -1.57002676    
  -1.10500801       1.55176699      -0.00000000       1850.41528      -1.57002676    
  -1.05521798       1.58604598      -0.00000000       1850.41528      -1.57002676    
  -1.00436401       1.61872697      -0.00000000       1850.41528      -1.57002676    
  -1.24750996       1.43970299      -0.00000000       1877.36572      -1.57026935    
  -1.20120299       1.47855902      -0.00000000       1877.36572      -1.57026935    
   0.00000000       0.00000000       0.00000000       1877.36572      -1.57026935    
  -1.29255998       1.39939702      -0.00000000       1877.36572      -1.57026935    
  -1.41972899       1.27019501      -0.00000000       1718.21301      -1.57035458    
  -1.37871301       1.31459999      -0.00000000       1718.21301      -1.57035458    
   0.00000000       0.00000000       0.00000000       1718.21301      -1.57035458    
  -1.45931494       1.22450995      -0.00000000       1718.21301      -1.57035458    
   0.00000000       0.00000000       0.00000000       1841.80957      -1.57035327    
  -1.37871301       1.31459999      -0.00000000       1841.80957      -1.57035327    
  -1.33631003       1.35768199      -0.00000000       1841.80957      -1.57035327    
  -1.29255998       1.39939702      -0.00000000       1841.80957      -1.57035327    
  -1.49743104       1.17759299      -0.00000000       1550.38269      -1.57031059    
  -1.45931494       1.22450995      -0.00000000       1550.38269      -1.57031059    
   0.00000000       0.00000000       0.00000000       1550.38269      -1.57031059    
  -1.53403997       1.12949002      -0.00000000       1550.38269      -1.57031059    
  -1.63445795      0.978555024      -0.00000000       1204.33813      -1.57020724    
  -1.60258806       1.02992105      -0.00000000       1204.33813      -1.57020724    
   0.00000000       0.00000000       0.00000000       1204.33813      -1.57020724    
  -1.66468298      0.926204979      -0.00000000       1204.33813      -1.57020724    
   0.00000000       0.00000000       0.00000000       1376.08301      -1.57025874    
  -1.60258806       1.02992105      -0.00000000       1376.08301      -1.57025874    
  -1.56910396       1.08024895      -0.00000000       1376.08301      -1.57025874    
  -1.53403997       1.12949002      -0.00000000       1376.08301      -1.57025874    
  -1.69323206      0.872922003      -0.00000000       1040.20398      -1.57016492    
  -1.66468298      0.926204979      -0.00000000       1040.20398      -1.57016492    
   0.00000000       0.00000000       0.00000000       1040.20398      -1.57016492    
  -1.72007501      0.818759024      -0.00000000       1040.20398      -1.57016492    
  -1.79011405      0.651548028      -0.00000000       736.071106      -1.57012165    
  -1.76854098      0.708016992      -0.00000000       736.071106      -1.57012165    
   0.00000000       0.00000000       0.00000000       736.071106      -1.57012165    
  -1.80988598      0.594424009      -0.00000000       736.071106      -1.57012165    
   0.00000000       0.00000000       0.00000000       884.361755      -1.57013440    
  -1.76854098      0.708016992      -0.00000000       884.361755      -1.57013440    
  -1.74518704      0.763773024      -0.00000000       884.361755      -1.57013440    
  -1.72007501      0.818759024      -0.00000000       884.361755      -1.57013440    
  -1.82783401      0.536701024      -0.00000000       594.108887      -1.57013607    
  -1.80988598      0.594424009      -0.00000000       594.108887      -1.57013607    
   0.00000000       0.00000000       0.00000000       594.108887      -1.57013607    
  -1.84394205      0.478437006      -0.00000000       594.108887      -1.57013607    
  -1.88107097      0.300992996      -0.00000000       322.471680      -1.57031024    
  -1.87057400      0.360523999      -0.00000000       322.471680      -1.57031024    
   0.00000000       0.00000000       0.00000000       322.471680      -1.57031024    
  -1.88967395      0.241159007      -0.00000000       322.471680      -1.57031024    
   0.00000000       0.00000000       0.00000000       456.676056      -1.57018661    
  -1.87057400      0.360523999      -0.00000000       456.676056      -1.57018661    
  -1.85819399      0.419692010      -0.00000000       456.676056      -1.57018661    
  -1.84394205      0.478437006      -0.00000000       456.676056      -1.57018661    
  -1.89637399      0.181081995      -0.00000000       189.862854      -1.57063448    
  -1.88967395      0.241159007      -0.00000000       189.862854      -1.57063448    
   0.00000000       0.00000000       0.00000000       189.862854      -1.57063448    
  -1.90116501      0.120823003      -0.00000000       189.862854      -1.57063448    
  -1.90404105      -6.04420006E-02  -0.00000000       71.7624817       1.57398272    
  -1.90499997       0.00000000      -0.00000000       71.7624817       1.57398272    
   0.00000000       0.00000000       0.00000000       71.7624817       1.57398272    
  -1.90116501     -0.120823003      -0.00000000       71.7624817       1.57398272    
   0.00000000       0.00000000       0.00000000       58.8481865      -1.57246423    
  -1.90499997       0.00000000      -0.00000000       58.8481865      -1.57246423    
  -1.90404105       6.04420006E-02  -0.00000000       58.8481865      -1.57246423    
  -1.90116501      0.120823003      -0.00000000       58.8481865      -1.57246423    
  -1.89637399     -0.181081995      -0.00000000       203.311584       1.57255518    
  -1.90116501     -0.120823003      -0.00000000       203.311584       1.57255518    
   0.00000000       0.00000000       0.00000000       203.311584       1.57255518    
  -1.88967395     -0.241159007      -0.00000000       203.311584       1.57255518    
  -1.85819399     -0.419692010      -0.00000000       471.198212       1.57207680    
  -1.87057400     -0.360523999      -0.00000000       471.198212       1.57207680    
   0.00000000       0.00000000       0.00000000       471.198212       1.57207680    
  -1.84394205     -0.478437006      -0.00000000       471.198212       1.57207680    
   0.00000000       0.00000000       0.00000000       336.351044       1.57223058    
  -1.87057400     -0.360523999      -0.00000000       336.351044       1.57223058    
  -1.88107097     -0.300992996      -0.00000000       336.351044       1.57223058    
  -1.88967395     -0.241159007      -0.00000000       336.351044       1.57223058    
  -1.82783401     -0.536701024      -0.00000000       609.900085       1.57196951    
  -1.84394205     -0.478437006      -0.00000000       609.900085       1.57196951    
   0.00000000       0.00000000       0.00000000       609.900085       1.57196951    
  -1.80988598     -0.594424009      -0.00000000       609.900085       1.57196951    
  -1.74518704     -0.763773024      -0.00000000       902.986816       1.57179844    
  -1.76854098     -0.708016992      -0.00000000       902.986816       1.57179844    
   0.00000000       0.00000000       0.00000000       902.986816       1.57179844    
  -1.72007501     -0.818759024      -0.00000000       902.986816       1.57179844    
   0.00000000       0.00000000       0.00000000       753.320618       1.57188129    
  -1.76854098     -0.708016992      -0.00000000       753.320618       1.57188129    
  -1.79011405     -0.651548028      -0.00000000       753.320618       1.57188129    
  -1.80988598     -0.594424009      -0.00000000       753.320618       1.57188129    
  -1.69323206     -0.872922003      -0.00000000       1060.21082       1.57171524    
  -1.72007501     -0.818759024      -0.00000000       1060.21082       1.57171524    
   0.00000000       0.00000000       0.00000000       1060.21082       1.57171524    
  -1.66468298     -0.926204979      -0.00000000       1060.21082       1.57171524    
  -1.56910396      -1.08024895      -0.00000000       1393.87500       1.57155335    
  -1.60258806      -1.02992105      -0.00000000       1393.87500       1.57155335    
   0.00000000       0.00000000       0.00000000       1393.87500       1.57155335    
  -1.53403997      -1.12949002      -0.00000000       1393.87500       1.57155335    
   0.00000000       0.00000000       0.00000000       1224.65857       1.57163250    
  -1.60258806      -1.02992105      -0.00000000       1224.65857       1.57163250    
  -1.63445795     -0.978555024      -0.00000000       1224.65857       1.57163250    
  -1.66468298     -0.926204979      -0.00000000       1224.65857       1.57163250    
  -1.49743104      -1.17759299      -0.00000000       1563.41382       1.57148147    
  -1.53403997      -1.12949002      -0.00000000       1563.41382       1.57148147    
   0.00000000       0.00000000       0.00000000       1563.41382       1.57148147    
  -1.45931494      -1.22450995      -0.00000000       1563.41382       1.57148147    
  -1.33631003      -1.35768199      -0.00000000       1842.48157       1.57141602    
  -1.37871301      -1.31459999      -0.00000000       1842.48157       1.57141602    
   0.00000000       0.00000000       0.00000000       1842.48157       1.57141602    
  -1.29255998      -1.39939702      -0.00000000       1842.48157       1.57141602    
   0.00000000       0.00000000       0.00000000       1724.70850       1.57142377    
  -1.37871301      -1.31459999      -0.00000000       1724.70850       1.57142377    
  -1.41972899      -1.27019501      -0.00000000       1724.70850       1.57142377    
  -1.45931494      -1.22450995      -0.00000000       1724.70850       1.57142377    
  -1.24750996      -1.43970299      -0.00000000       1872.59790       1.57150090    
  -1.29255998      -1.39939702      -0.00000000       1872.59790       1.57150090    
   0.00000000       0.00000000       0.00000000       1872.59790       1.57150090    
  -1.20120299      -1.47855902      -0.00000000       1872.59790       1.57150090    
  -1.05521798      -1.58604598      -0.00000000       1836.66162       1.57175636    
  -1.10500801      -1.55176699      -0.00000000       1836.66162       1.57175636    
   0.00000000       0.00000000       0.00000000       1836.66162       1.57175636    
  -1.00436401      -1.61872697      -0.00000000       1836.66162       1.57175636    
   0.00000000       0.00000000       0.00000000       1858.23450       1.57162833    
  -1.10500801      -1.55176699      -0.00000000       1858.23450       1.57162833    
  -1.15368605      -1.51592600      -0.00000000       1858.23450       1.57162833    
  -1.20120299      -1.47855902      -0.00000000       1858.23450       1.57162833    
 -0.952499986      -1.64977801      -0.00000000       1816.58704       1.57187510    
  -1.00436401      -1.61872697      -0.00000000       1816.58704       1.57187510    
   0.00000000       0.00000000       0.00000000       1816.58704       1.57187510    
 -0.899676025      -1.67916906      -0.00000000       1816.58704       1.57187510    
 -0.735987008      -1.75708497      -0.00000000       1793.90796       1.57206190    
 -0.791365981      -1.73284900      -0.00000000       1793.90796       1.57206190    
   0.00000000       0.00000000       0.00000000       1793.90796       1.57206190    
 -0.679867983      -1.77955198      -0.00000000       1793.90796       1.57206190    
   0.00000000       0.00000000       0.00000000       1802.24988       1.57197750    
 -0.791365981      -1.73284900      -0.00000000       1802.24988       1.57197750    
 -0.845947027      -1.70686805      -0.00000000       1802.24988       1.57197750    
 -0.899676025      -1.67916906      -0.00000000       1802.24988       1.57197750    
 -0.623063982      -1.80022705      -0.00000000       1790.98657       1.57212853    
 -0.679867983      -1.77955198      -0.00000000       1790.98657       1.57212853    
   0.00000000       0.00000000       0.00000000       1790.98657       1.57212853    
 -0.565632999      -1.81908906      -0.00000000       1790.98657       1.57212853    
 -0.390157014      -1.86461902      -0.00000000       1795.61450       1.57221496    
 -0.449120998      -1.85130095      -0.00000000       1795.61450       1.57221496    
   0.00000000       0.00000000       0.00000000       1795.61450       1.57221496    
 -0.330799997      -1.87605906      -0.00000000       1795.61450       1.57221496    
   0.00000000       0.00000000       0.00000000       1792.05200       1.57217860    
 -0.449120998      -1.85130095      -0.00000000       1792.05200       1.57217860    
 -0.507632971      -1.83611906      -0.00000000       1792.05200       1.57217860    
 -0.565632999      -1.81908906      -0.00000000       1792.05200       1.57217860    
 -0.271109998      -1.88560998      -0.00000000       1799.70117       1.57223892    
 -0.330799997      -1.87605906      -0.00000000       1799.70117       1.57223892    
   0.00000000       0.00000000       0.00000000       1799.70117       1.57223892    
 -0.211146995      -1.89326203      -0.00000000       1799.70117       1.57223892    
  -3.02249994E-02  -1.90476000      -0.00000000       1802.75110       1.57226217    
  -9.06440020E-02  -1.90284204      -0.00000000       1802.75110       1.57226217    
   0.00000000       0.00000000       0.00000000       1802.75110       1.57226217    
   3.02249994E-02  -1.90476000      -0.00000000       1802.75110       1.57226217    
   0.00000000       0.00000000       0.00000000       1802.14844       1.57225478    
  -9.06440020E-02  -1.90284204      -0.00000000       1802.14844       1.57225478    
 -0.150970995      -1.89900804      -0.00000000       1802.14844       1.57225478    
 -0.211146995      -1.89326203      -0.00000000       1802.14844       1.57225478    
   9.06440020E-02  -1.90284204      -0.00000000       1800.98560       1.57226229    
   3.02249994E-02  -1.90476000      -0.00000000       1800.98560       1.57226229    
   0.00000000       0.00000000       0.00000000       1800.98560       1.57226229    
  0.150970995      -1.89900804      -0.00000000       1800.98560       1.57226229    
  0.330799997      -1.87605906      -0.00000000       1791.01843       1.57223904    
  0.271109998      -1.88560998      -0.00000000       1791.01843       1.57223904    
   0.00000000       0.00000000       0.00000000       1791.01843       1.57223904    
  0.390157014      -1.86461902      -0.00000000       1791.01843       1.57223904    
   0.00000000       0.00000000       0.00000000       1796.97363       1.57225466    
  0.271109998      -1.88560998      -0.00000000       1796.97363       1.57225466    
  0.211146995      -1.89326203      -0.00000000       1796.97363       1.57225466    
  0.150970995      -1.89900804      -0.00000000       1796.97363       1.57225466    
  0.449120998      -1.85130095      -0.00000000       1784.19678       1.57221377    
  0.390157014      -1.86461902      -0.00000000       1784.19678       1.57221377    
   0.00000000       0.00000000       0.00000000       1784.19678       1.57221377    
  0.507632971      -1.83611906      -0.00000000       1784.19678       1.57221377    
  0.679867983      -1.77955198      -0.00000000       1776.04236       1.57212281    
  0.623063982      -1.80022705      -0.00000000       1776.04236       1.57212281    
   0.00000000       0.00000000       0.00000000       1776.04236       1.57212281    
  0.735987008      -1.75708497      -0.00000000       1776.04236       1.57212281    
   0.00000000       0.00000000       0.00000000       1778.98682       1.57217550    
  0.623063982      -1.80022705      -0.00000000       1778.98682       1.57217550    
  0.565632999      -1.81908906      -0.00000000       1778.98682       1.57217550    
  0.507632971      -1.83611906      -0.00000000       1778.98682       1.57217550    
  0.791365981      -1.73284900      -0.00000000       1776.67505       1.57205415    
  0.735987008      -1.75708497      -0.00000000       1776.67505       1.57205415    
   0.00000000       0.00000000       0.00000000       1776.67505       1.57205415    
  0.845947027      -1.70686805      -0.00000000       1776.67505       1.57205415    
   1.00436401      -1.61872697      -0.00000000       1793.30408       1.57186556    
  0.952499986      -1.64977801      -0.00000000       1793.30408       1.57186556    
   0.00000000       0.00000000       0.00000000       1793.30408       1.57186556    
   1.05521798      -1.58604598      -0.00000000       1793.30408       1.57186556    
   0.00000000       0.00000000       0.00000000       1782.48340       1.57196832    
  0.952499986      -1.64977801      -0.00000000       1782.48340       1.57196832    
  0.899676025      -1.67916906      -0.00000000       1782.48340       1.57196832    
  0.845947027      -1.70686805      -0.00000000       1782.48340       1.57196832    
   1.10500801      -1.55176699      -0.00000000       1807.30188       1.57174861    
   1.05521798      -1.58604598      -0.00000000       1807.30188       1.57174861    
   0.00000000       0.00000000       0.00000000       1807.30188       1.57174861    
   1.15368605      -1.51592600      -0.00000000       1807.30188       1.57174861    
   1.29255998      -1.39939702      -0.00000000       1824.09131       1.57150114    
   1.24750996      -1.43970299      -0.00000000       1824.09131       1.57150114    
   0.00000000       0.00000000       0.00000000       1824.09131       1.57150114    
   1.33631003      -1.35768199      -0.00000000       1824.09131       1.57150114    
   0.00000000       0.00000000       0.00000000       1820.36841       1.57162416    
   1.24750996      -1.43970299      -0.00000000       1820.36841       1.57162416    
   1.20120299      -1.47855902      -0.00000000       1820.36841       1.57162416    