 VARIABLES="X" "Y" "Z" "abs(p) (Pa)" "angle(p) (rad)"
ZONE N=    802,E =     800, F=FEPOINT, ET=QUADRILATERAL
   1.90499997       0.00000000      -0.00000000       336.329132       1.57806027    
   1.90404105      -6.04420006E-02  -0.00000000       336.329132       1.57806027    
   0.00000000       0.00000000       0.00000000       336.329132       1.57806027    
   1.90404105       6.04420006E-02  -0.00000000       336.329132       1.57806027    
   1.88967395      0.241159007      -0.00000000       335.805267       1.57800543    
   1.89637399      0.181081995      -0.00000000       335.805267       1.57800543    
   0.00000000       0.00000000       0.00000000       335.805267       1.57800543    
   1.88107097      0.300992996      -0.00000000       335.805267       1.57800543    
   0.00000000       0.00000000       0.00000000       336.247650       1.57804501    
   1.89637399      0.181081995      -0.00000000       336.247650       1.57804501    
   1.90116501      0.120823003      -0.00000000       336.247650       1.57804501    
   1.90404105       6.04420006E-02  -0.00000000       336.247650       1.57804501    
   1.87057400      0.360523999      -0.00000000       335.134155       1.57793748    
   1.88107097      0.300992996      -0.00000000       335.134155       1.57793748    
   0.00000000       0.00000000       0.00000000       335.134155       1.57793748    
   1.85819399      0.419692010      -0.00000000       335.134155       1.57793748    
   1.80988598      0.594424009      -0.00000000       334.887268       1.57765484    
   1.82783401      0.536701024      -0.00000000       334.887268       1.57765484    
   0.00000000       0.00000000       0.00000000       334.887268       1.57765484    
   1.79011405      0.651548028      -0.00000000       334.887268       1.57765484    
   0.00000000       0.00000000       0.00000000       334.757050       1.57782245    
   1.82783401      0.536701024      -0.00000000       334.757050       1.57782245    
   1.84394205      0.478437006      -0.00000000       334.757050       1.57782245    
   1.85819399      0.419692010      -0.00000000       334.757050       1.57782245    
   1.76854098      0.708016992      -0.00000000       335.817841       1.57742441    
   1.79011405      0.651548028      -0.00000000       335.817841       1.57742441    
   0.00000000       0.00000000       0.00000000       335.817841       1.57742441    
   1.74518704      0.763773024      -0.00000000       335.817841       1.57742441    
   1.66468298      0.926204979      -0.00000000       340.796722       1.57676029    
   1.69323206      0.872922003      -0.00000000       340.796722       1.57676029    
   0.00000000       0.00000000       0.00000000       340.796722       1.57676029    
   1.63445795      0.978555024      -0.00000000       340.796722       1.57676029    
   0.00000000       0.00000000       0.00000000       337.785828       1.57712519    
   1.69323206      0.872922003      -0.00000000       337.785828       1.57712519    
   1.72007501      0.818759024      -0.00000000       337.785828       1.57712519    
   1.74518704      0.763773024      -0.00000000       337.785828       1.57712519    
   1.60258806       1.02992105      -0.00000000       344.461395       1.57634401    
   1.63445795      0.978555024      -0.00000000       344.461395       1.57634401    
   0.00000000       0.00000000       0.00000000       344.461395       1.57634401    
   1.56910396       1.08024895      -0.00000000       344.461395       1.57634401    
   1.45931494       1.22450995      -0.00000000       349.876587       1.57547629    
   1.49743104       1.17759299      -0.00000000       349.876587       1.57547629    
   0.00000000       0.00000000       0.00000000       349.876587       1.57547629    
   1.41972899       1.27019501      -0.00000000       349.876587       1.57547629    
   0.00000000       0.00000000       0.00000000       348.015167       1.57590115    
   1.49743104       1.17759299      -0.00000000       348.015167       1.57590115    
   1.53403997       1.12949002      -0.00000000       348.015167       1.57590115    
   1.56910396       1.08024895      -0.00000000       348.015167       1.57590115    
   1.37871301       1.31459999      -0.00000000       343.634918       1.57525086    
   1.41972899       1.27019501      -0.00000000       343.634918       1.57525086    
   0.00000000       0.00000000       0.00000000       343.634918       1.57525086    
   1.33631003       1.35768199      -0.00000000       343.634918       1.57525086    
   1.20120299       1.47855902      -0.00000000       290.531036       1.57600713    
   1.24750996       1.43970299      -0.00000000       290.531036       1.57600713    
   0.00000000       0.00000000       0.00000000       290.531036       1.57600713    
   1.15368605       1.51592600      -0.00000000       290.531036       1.57600713    
   0.00000000       0.00000000       0.00000000       321.190216       1.57548118    
   1.24750996       1.43970299      -0.00000000       321.190216       1.57548118    
   1.29255998       1.39939702      -0.00000000       321.190216       1.57548118    
   1.33631003       1.35768199      -0.00000000       321.190216       1.57548118    
   1.10500801       1.55176699      -0.00000000       258.648163       1.57666993    
   1.15368605       1.51592600      -0.00000000       258.648163       1.57666993    
   0.00000000       0.00000000       0.00000000       258.648163       1.57666993    
   1.05521798       1.58604598      -0.00000000       258.648163       1.57666993    
  0.899676025       1.67916906      -0.00000000       197.314972       1.57835579    
  0.952499986       1.64977801      -0.00000000       197.314972       1.57835579    
   0.00000000       0.00000000       0.00000000       197.314972       1.57835579    
  0.845947027       1.70686805      -0.00000000       197.314972       1.57835579    
   0.00000000       0.00000000       0.00000000       227.283829       1.57745159    
  0.952499986       1.64977801      -0.00000000       227.283829       1.57745159    
   1.00436401       1.61872697      -0.00000000       227.283829       1.57745159    
   1.05521798       1.58604598      -0.00000000       227.283829       1.57745159    
  0.791365981       1.73284900      -0.00000000       168.894913       1.57942235    
  0.845947027       1.70686805      -0.00000000       168.894913       1.57942235    
   0.00000000       0.00000000       0.00000000       168.894913       1.57942235    
  0.735987008       1.75708497      -0.00000000       168.894913       1.57942235    
  0.565632999       1.81908906      -0.00000000       116.037285       1.58246648    
  0.623063982       1.80022705      -0.00000000       116.037285       1.58246648    
   0.00000000       0.00000000       0.00000000       116.037285       1.58246648    
  0.507632971       1.83611906      -0.00000000       116.037285       1.58246648    
   0.00000000       0.00000000       0.00000000       141.884308       1.58073688    
  0.623063982       1.80022705      -0.00000000       141.884308       1.58073688    
  0.679867983       1.77955198      -0.00000000       141.884308       1.58073688    
  0.735987008       1.75708497      -0.00000000       141.884308       1.58073688    
  0.449120998       1.85130095      -0.00000000       90.9997330       1.58498466    
  0.507632971       1.83611906      -0.00000000       90.9997330       1.58498466    
   0.00000000       0.00000000       0.00000000       90.9997330       1.58498466    
  0.390157014       1.86461902      -0.00000000       90.9997330       1.58498466    
  0.211146995       1.89326203      -0.00000000       42.3662071       1.59798753    
  0.271109998       1.88560998      -0.00000000       42.3662071       1.59798753    
   0.00000000       0.00000000       0.00000000       42.3662071       1.59798753    
  0.150970995       1.89900804      -0.00000000       42.3662071       1.59798753    
   0.00000000       0.00000000       0.00000000       66.5450745       1.58917499    
  0.271109998       1.88560998      -0.00000000       66.5450745       1.58917499    
  0.330799997       1.87605906      -0.00000000       66.5450745       1.58917499    
  0.390157014       1.86461902      -0.00000000       66.5450745       1.58917499    
   9.06440020E-02   1.90284204      -0.00000000       18.4744415       1.62920976    
  0.150970995       1.89900804      -0.00000000       18.4744415       1.62920976    
   0.00000000       0.00000000       0.00000000       18.4744415       1.62920976    
   3.02249994E-02   1.90476000      -0.00000000       18.4744415       1.62920976    
 -0.150970995       1.89900804      -0.00000000       29.3405914      -1.60251808    
  -9.06440020E-02   1.90284204      -0.00000000       29.3405914      -1.60251808    
   0.00000000       0.00000000       0.00000000       29.3405914      -1.60251808    
 -0.211146995       1.89326203      -0.00000000       29.3405914      -1.60251808    
   0.00000000       0.00000000       0.00000000       5.47298193      -1.75534010    
  -9.06440020E-02   1.90284204      -0.00000000       5.47298193      -1.75534010    
  -3.02249994E-02   1.90476000      -0.00000000       5.47298193      -1.75534010    
   3.02249994E-02   1.90476000      -0.00000000       5.47298193      -1.75534010    
 -0.271109998       1.88560998      -0.00000000       53.5104218      -1.58684266    
 -0.211146995       1.89326203      -0.00000000       53.5104218      -1.58684266    
   0.00000000       0.00000000       0.00000000       53.5104218      -1.58684266    
 -0.330799997       1.87605906      -0.00000000       53.5104218      -1.58684266    
 -0.507632971       1.83611906      -0.00000000       103.123482      -1.57781982    
 -0.449120998       1.85130095      -0.00000000       103.123482      -1.57781982    
   0.00000000       0.00000000       0.00000000       103.123482      -1.57781982    
 -0.565632999       1.81908906      -0.00000000       103.123482      -1.57781982    
   0.00000000       0.00000000       0.00000000       77.9837570      -1.58091450    
 -0.449120998       1.85130095      -0.00000000       77.9837570      -1.58091450    
 -0.390157014       1.86461902      -0.00000000       77.9837570      -1.58091450    
 -0.330799997       1.87605906      -0.00000000       77.9837570      -1.58091450    
 -0.623063982       1.80022705      -0.00000000       129.079514      -1.57595360    
 -0.565632999       1.81908906      -0.00000000       129.079514      -1.57595360    
   0.00000000       0.00000000       0.00000000       129.079514      -1.57595360    
 -0.679867983       1.77955198      -0.00000000       129.079514      -1.57595360    
 -0.845947027       1.70686805      -0.00000000       184.644104      -1.57392240    
 -0.791365981       1.73284900      -0.00000000       184.644104      -1.57392240    
   0.00000000       0.00000000       0.00000000       184.644104      -1.57392240    
 -0.899676025       1.67916906      -0.00000000       184.644104      -1.57392240    
   0.00000000       0.00000000       0.00000000       156.169571      -1.57474065    
 -0.791365981       1.73284900      -0.00000000       156.169571      -1.57474065    
 -0.735987008       1.75708497      -0.00000000       156.169571      -1.57474065    
 -0.679867983       1.77955198      -0.00000000       156.169571      -1.57474065    
 -0.952499986       1.64977801      -0.00000000       214.425812      -1.57336259    
 -0.899676025       1.67916906      -0.00000000       214.425812      -1.57336259    
   0.00000000       0.00000000       0.00000000       214.425812      -1.57336259    
  -1.00436401       1.61872697      -0.00000000       214.425812      -1.57336259    
  -1.15368605       1.51592600      -0.00000000       275.862518      -1.57271576    
  -1.10500801       1.55176699      -0.00000000       275.862518      -1.57271576    
   0.00000000       0.00000000       0.00000000       275.862518      -1.57271576    
  -1.20120299       1.47855902      -0.00000000       275.862518      -1.57271576    
   0.00000000       0.00000000       0.00000000       245.101547      -1.57297945    
  -1.10500801       1.55176699      -0.00000000       245.101547      -1.57297945    
  -1.05521798       1.58604598      -0.00000000       245.101547      -1.57297945    
  -1.00436401       1.61872697      -0.00000000       245.101547      -1.57297945    
  -1.24750996       1.43970299      -0.00000000       305.136322      -1.57252169    
  -1.20120299       1.47855902      -0.00000000       305.136322      -1.57252169    
   0.00000000       0.00000000       0.00000000       305.136322      -1.57252169    
  -1.29255998       1.39939702      -0.00000000       305.136322      -1.57252169    
  -1.41972899       1.27019501      -0.00000000       332.555969      -1.57195210    
  -1.37871301       1.31459999      -0.00000000       332.555969      -1.57195210    
   0.00000000       0.00000000       0.00000000       332.555969      -1.57195210    
  -1.45931494       1.22450995      -0.00000000       332.555969      -1.57195210    
   0.00000000       0.00000000       0.00000000       326.667694      -1.57230413    
  -1.37871301       1.31459999      -0.00000000       326.667694      -1.57230413    
  -1.33631003       1.35768199      -0.00000000       326.667694      -1.57230413    
  -1.29255998       1.39939702      -0.00000000       326.667694      -1.57230413    
  -1.49743104       1.17759299      -0.00000000       330.436523      -1.57153726    
  -1.45931494       1.22450995      -0.00000000       330.436523      -1.57153726    
   0.00000000       0.00000000       0.00000000       330.436523      -1.57153726    
  -1.53403997       1.12949002      -0.00000000       330.436523      -1.57153726    
  -1.63445795      0.978555024      -0.00000000       323.833496      -1.57076335    
  -1.60258806       1.02992105      -0.00000000       323.833496      -1.57076335    
   0.00000000       0.00000000       0.00000000       323.833496      -1.57076335    
  -1.66468298      0.926204979      -0.00000000       323.833496      -1.57076335    
   0.00000000       0.00000000       0.00000000       326.992706      -1.57113373    
  -1.60258806       1.02992105      -0.00000000       326.992706      -1.57113373    
  -1.56910396       1.08024895      -0.00000000       326.992706      -1.57113373    
  -1.53403997       1.12949002      -0.00000000       326.992706      -1.57113373    
  -1.69323206      0.872922003      -0.00000000       321.699280      -1.57043827    
  -1.66468298      0.926204979      -0.00000000       321.699280      -1.57043827    
   0.00000000       0.00000000       0.00000000       321.699280      -1.57043827    
  -1.72007501      0.818759024      -0.00000000       321.699280      -1.57043827    
  -1.79011405      0.651548028      -0.00000000       320.663330      -1.56994033    
  -1.76854098      0.708016992      -0.00000000       320.663330      -1.56994033    
   0.00000000       0.00000000       0.00000000       320.663330      -1.56994033    
  -1.80988598      0.594424009      -0.00000000       320.663330      -1.56994033    
   0.00000000       0.00000000       0.00000000       320.690186      -1.57016337    
  -1.76854098      0.708016992      -0.00000000       320.690186      -1.57016337    
  -1.74518704      0.763773024      -0.00000000       320.690186      -1.57016337    
  -1.72007501      0.818759024      -0.00000000       320.690186      -1.57016337    
  -1.82783401      0.536701024      -0.00000000       321.352173      -1.56976593    
  -1.80988598      0.594424009      -0.00000000       321.352173      -1.56976593    
   0.00000000       0.00000000       0.00000000       321.352173      -1.56976593    
  -1.84394205      0.478437006      -0.00000000       321.352173      -1.56976593    
  -1.88107097      0.300992996      -0.00000000       323.698151      -1.56954420    
  -1.87057400      0.360523999      -0.00000000       323.698151      -1.56954420    
   0.00000000       0.00000000       0.00000000       323.698151      -1.56954420    
  -1.88967395      0.241159007      -0.00000000       323.698151      -1.56954420    
   0.00000000       0.00000000       0.00000000       322.484558      -1.56963551    
  -1.87057400      0.360523999      -0.00000000       322.484558      -1.56963551    
  -1.85819399      0.419692010      -0.00000000       322.484558      -1.56963551    
  -1.84394205      0.478437006      -0.00000000       322.484558      -1.56963551    
  -1.89637399      0.181081995      -0.00000000       324.594635      -1.56948459    
  -1.88967395      0.241159007      -0.00000000       324.594635      -1.56948459    
   0.00000000       0.00000000       0.00000000       324.594635      -1.56948459    
  -1.90116501      0.120823003      -0.00000000       324.594635      -1.56948459    
  -1.90404105      -6.04420006E-02  -0.00000000       325.181580      -1.56945813    
  -1.90499997       0.00000000      -0.00000000       325.181580      -1.56945813    
   0.00000000       0.00000000       0.00000000       325.181580      -1.56945813    
  -1.90116501     -0.120823003      -0.00000000       325.181580      -1.56945813    
   0.00000000       0.00000000       0.00000000       325.105896      -1.56945693    
  -1.90499997       0.00000000      -0.00000000       325.105896      -1.56945693    
  -1.90404105       6.04420006E-02  -0.00000000       325.105896      -1.56945693    
  -1.90116501      0.120823003      -0.00000000       325.105896      -1.56945693    
  -1.89637399     -0.181081995      -0.00000000       324.811676      -1.56948853    
  -1.90116501     -0.120823003      -0.00000000       324.811676      -1.56948853    
   0.00000000       0.00000000       0.00000000       324.811676      -1.56948853    
  -1.88967395     -0.241159007      -0.00000000       324.811676      -1.56948853    
  -1.85819399     -0.419692010      -0.00000000       323.124084      -1.56964588    
  -1.87057400     -0.360523999      -0.00000000       323.124084      -1.56964588    
   0.00000000       0.00000000       0.00000000       323.124084      -1.56964588    
  -1.84394205     -0.478437006      -0.00000000       323.124084      -1.56964588    
   0.00000000       0.00000000       0.00000000       324.058014      -1.56955016    
  -1.87057400     -0.360523999      -0.00000000       324.058014      -1.56955016    
  -1.88107097     -0.300992996      -0.00000000       324.058014      -1.56955016    
  -1.88967395     -0.241159007      -0.00000000       324.058014      -1.56955016    
  -1.82783401     -0.536701024      -0.00000000       322.492676      -1.56978285    
  -1.84394205     -0.478437006      -0.00000000       322.492676      -1.56978285    
   0.00000000       0.00000000       0.00000000       322.492676      -1.56978285    
  -1.80988598     -0.594424009      -0.00000000       322.492676      -1.56978285    
  -1.74518704     -0.763773024      -0.00000000       322.767639      -1.57019031    
  -1.76854098     -0.708016992      -0.00000000       322.767639      -1.57019031    
   0.00000000       0.00000000       0.00000000       322.767639      -1.57019031    
  -1.72007501     -0.818759024      -0.00000000       322.767639      -1.57019031    
   0.00000000       0.00000000       0.00000000       322.277374      -1.56996298    
  -1.76854098     -0.708016992      -0.00000000       322.277374      -1.56996298    
  -1.79011405     -0.651548028      -0.00000000       322.277374      -1.56996298    
  -1.80988598     -0.594424009      -0.00000000       322.277374      -1.56996298    
  -1.69323206     -0.872922003      -0.00000000       324.222778      -1.57046783    
  -1.72007501     -0.818759024      -0.00000000       324.222778      -1.57046783    
   0.00000000       0.00000000       0.00000000       324.222778      -1.57046783    
  -1.66468298     -0.926204979      -0.00000000       324.222778      -1.57046783    
  -1.56910396      -1.08024895      -0.00000000       329.640533      -1.57115626    
  -1.60258806      -1.02992105      -0.00000000       329.640533      -1.57115626    
   0.00000000       0.00000000       0.00000000       329.640533      -1.57115626    
  -1.53403997      -1.12949002      -0.00000000       329.640533      -1.57115626    
   0.00000000       0.00000000       0.00000000       326.627869      -1.57079172    
  -1.60258806      -1.02992105      -0.00000000       326.627869      -1.57079172    
  -1.63445795     -0.978555024      -0.00000000       326.627869      -1.57079172    
  -1.66468298     -0.926204979      -0.00000000       326.627869      -1.57079172    
  -1.49743104      -1.17759299      -0.00000000       332.516602      -1.57155073    
  -1.53403997      -1.12949002      -0.00000000       332.516602      -1.57155073    
   0.00000000       0.00000000       0.00000000       332.516602      -1.57155073    
  -1.45931494      -1.22450995      -0.00000000       332.516602      -1.57155073    
  -1.33631003      -1.35768199      -0.00000000       326.845764      -1.57230318    
  -1.37871301      -1.31459999      -0.00000000       326.845764      -1.57230318    
   0.00000000       0.00000000       0.00000000       326.845764      -1.57230318    
  -1.29255998      -1.39939702      -0.00000000       326.845764      -1.57230318    
   0.00000000       0.00000000       0.00000000       333.672882      -1.57195556    
  -1.37871301      -1.31459999      -0.00000000       333.672882      -1.57195556    
  -1.41972899      -1.27019501      -0.00000000       333.672882      -1.57195556    
  -1.45931494      -1.22450995      -0.00000000       333.672882      -1.57195556    
  -1.24750996      -1.43970299      -0.00000000       304.295410      -1.57252026    
  -1.29255998      -1.39939702      -0.00000000       304.295410      -1.57252026    
   0.00000000       0.00000000       0.00000000       304.295410      -1.57252026    
  -1.20120299      -1.47855902      -0.00000000       304.295410      -1.57252026    
  -1.05521798      -1.58604598      -0.00000000       242.259460      -1.57297862    
  -1.10500801      -1.55176699      -0.00000000       242.259460      -1.57297862    
   0.00000000       0.00000000       0.00000000       242.259460      -1.57297862    
  -1.00436401      -1.61872697      -0.00000000       242.259460      -1.57297862    
   0.00000000       0.00000000       0.00000000       273.870117      -1.57271290    
  -1.10500801      -1.55176699      -0.00000000       273.870117      -1.57271290    
  -1.15368605      -1.51592600      -0.00000000       273.870117      -1.57271290    
  -1.20120299      -1.47855902      -0.00000000       273.870117      -1.57271290    
 -0.952499986      -1.64977801      -0.00000000       211.141373      -1.57336831    
  -1.00436401      -1.61872697      -0.00000000       211.141373      -1.57336831    
   0.00000000       0.00000000       0.00000000       211.141373      -1.57336831    
 -0.899676025      -1.67916906      -0.00000000       211.141373      -1.57336831    
 -0.735987008      -1.75708497      -0.00000000       153.153473      -1.57478297    
 -0.791365981      -1.73284900      -0.00000000       153.153473      -1.57478297    
   0.00000000       0.00000000       0.00000000       153.153473      -1.57478297    
 -0.679867983      -1.77955198      -0.00000000       153.153473      -1.57478297    
   0.00000000       0.00000000       0.00000000       181.384430      -1.57394254    
 -0.791365981      -1.73284900      -0.00000000       181.384430      -1.57394254    
 -0.845947027      -1.70686805      -0.00000000       181.384430      -1.57394254    
 -0.899676025      -1.67916906      -0.00000000       181.384430      -1.57394254    
 -0.623063982      -1.80022705      -0.00000000       126.294266      -1.57603323    
 -0.679867983      -1.77955198      -0.00000000       126.294266      -1.57603323    
   0.00000000       0.00000000       0.00000000       126.294266      -1.57603323    
 -0.565632999      -1.81908906      -0.00000000       126.294266      -1.57603323    
 -0.390157014      -1.86461902      -0.00000000       75.6318893      -1.58119714    
 -0.449120998      -1.85130095      -0.00000000       75.6318893      -1.58119714    
   0.00000000       0.00000000       0.00000000       75.6318893      -1.58119714    
 -0.330799997      -1.87605906      -0.00000000       75.6318893      -1.58119714    
   0.00000000       0.00000000       0.00000000       100.568291      -1.57796586    
 -0.449120998      -1.85130095      -0.00000000       100.568291      -1.57796586    
 -0.507632971      -1.83611906      -0.00000000       100.568291      -1.57796586    
 -0.565632999      -1.81908906      -0.00000000       100.568291      -1.57796586    
 -0.271109998      -1.88560998      -0.00000000       51.2635498      -1.58750916    
 -0.330799997      -1.87605906      -0.00000000       51.2635498      -1.58750916    
   0.00000000       0.00000000       0.00000000       51.2635498      -1.58750916    
 -0.211146995      -1.89326203      -0.00000000       51.2635498      -1.58750916    
  -3.02249994E-02  -1.90476000      -0.00000000       3.41352105      -1.86900795    
  -9.06440020E-02  -1.90284204      -0.00000000       3.41352105      -1.86900795    
   0.00000000       0.00000000       0.00000000       3.41352105      -1.86900795    
   3.02249994E-02  -1.90476000      -0.00000000       3.41352105      -1.86900795    
   0.00000000       0.00000000       0.00000000       27.1554489      -1.60501313    
  -9.06440020E-02  -1.90284204      -0.00000000       27.1554489      -1.60501313    
 -0.150970995      -1.89900804      -0.00000000       27.1554489      -1.60501313    
 -0.211146995      -1.89326203      -0.00000000       27.1554489      -1.60501313    
   9.06440020E-02  -1.90284204      -0.00000000       20.5998421       1.62310672    
   3.02249994E-02  -1.90476000      -0.00000000       20.5998421       1.62310672    
   0.00000000       0.00000000       0.00000000       20.5998421       1.62310672    
  0.150970995      -1.89900804      -0.00000000       20.5998421       1.62310672    
  0.330799997      -1.87605906      -0.00000000       68.8442459       1.58852804    
  0.271109998      -1.88560998      -0.00000000       68.8442459       1.58852804    
   0.00000000       0.00000000       0.00000000       68.8442459       1.58852804    
  0.390157014      -1.86461902      -0.00000000       68.8442459       1.58852804    
   0.00000000       0.00000000       0.00000000       44.5849152       1.59659517    
  0.271109998      -1.88560998      -0.00000000       44.5849152       1.59659517    
  0.211146995      -1.89326203      -0.00000000       44.5849152       1.59659517    
  0.150970995      -1.89900804      -0.00000000       44.5849152       1.59659517    
  0.449120998      -1.85130095      -0.00000000       93.4292603       1.58458674    
  0.390157014      -1.86461902      -0.00000000       93.4292603       1.58458674    
   0.00000000       0.00000000       0.00000000       93.4292603       1.58458674    
  0.507632971      -1.83611906      -0.00000000       93.4292603       1.58458674    
  0.679867983      -1.77955198      -0.00000000       144.814667       1.58050144    
  0.623063982      -1.80022705      -0.00000000       144.814667       1.58050144    
   0.00000000       0.00000000       0.00000000       144.814667       1.58050144    
  0.735987008      -1.75708497      -0.00000000       144.814667       1.58050144    
   0.00000000       0.00000000       0.00000000       118.702202       1.58217311    
  0.623063982      -1.80022705      -0.00000000       118.702202       1.58217311    
  0.565632999      -1.81908906      -0.00000000       118.702202       1.58217311    
  0.507632971      -1.83611906      -0.00000000       118.702202       1.58217311    
  0.791365981      -1.73284900      -0.00000000       172.103806       1.57922459    
  0.735987008      -1.75708497      -0.00000000       172.103806       1.57922459    
   0.00000000       0.00000000       0.00000000       172.103806       1.57922459    
  0.845947027      -1.70686805      -0.00000000       172.103806       1.57922459    
   1.00436401      -1.61872697      -0.00000000       230.793655       1.57731330    
  0.952499986      -1.64977801      -0.00000000       230.793655       1.57731330    
   0.00000000       0.00000000       0.00000000       230.793655       1.57731330    
   1.05521798      -1.58604598      -0.00000000       230.793655       1.57731330    
   0.00000000       0.00000000       0.00000000       200.779587       1.57818699    
  0.952499986      -1.64977801      -0.00000000       200.779587       1.57818699    
  0.899676025      -1.67916906      -0.00000000       200.779587       1.57818699    
  0.845947027      -1.70686805      -0.00000000       200.779587       1.57818699    
   1.10500801      -1.55176699      -0.00000000       261.727997       1.57657146    
   1.05521798      -1.58604598      -0.00000000       261.727997       1.57657146    
   0.00000000       0.00000000       0.00000000       261.727997       1.57657146    
   1.15368605      -1.51592600      -0.00000000       261.727997       1.57657146    
   1.29255998      -1.39939702      -0.00000000       322.254181       1.57545686    
   1.24750996      -1.43970299      -0.00000000       322.254181       1.57545686    
   0.00000000       0.00000000       0.00000000       322.254181       1.57545686    
   1.33631003      -1.35768199      -0.00000000       322.254181       1.57545686    
   0.00000000       0.00000000       0.00000000       292.758698       1.57594788    
   1.24750996      -1.43970299      -0.00000000       292.758698       1.57594788    
   1.20120299      -1.47855902      -0.00000000       292.758698       1.57594788    