 VARIABLES="X" "Y" "Z" "abs(p) (Pa)" "angle(p) (rad)"
ZONE N=    802,E =     800, F=FEPOINT, ET=QUADRILATERAL
   1.90499997       0.00000000      -0.00000000       73.3513107      -1.67912936    
   1.90404105      -6.04420006E-02  -0.00000000       73.3513107      -1.67912936    
   0.00000000       0.00000000       0.00000000       73.3513107      -1.67912936    
   1.90404105       6.04420006E-02  -0.00000000       73.3513107      -1.67912936    
   1.88967395      0.241159007      -0.00000000       73.2154007      -1.67929375    
   1.89637399      0.181081995      -0.00000000       73.2154007      -1.67929375    
   0.00000000       0.00000000       0.00000000       73.2154007      -1.67929375    
   1.88107097      0.300992996      -0.00000000       73.2154007      -1.67929375    
   0.00000000       0.00000000       0.00000000       73.3087006      -1.67918921    
   1.89637399      0.181081995      -0.00000000       73.3087006      -1.67918921    
   1.90116501      0.120823003      -0.00000000       73.3087006      -1.67918921    
   1.90404105       6.04420006E-02  -0.00000000       73.3087006      -1.67918921    
   1.87057400      0.360523999      -0.00000000       73.1088638      -1.67936087    
   1.88107097      0.300992996      -0.00000000       73.1088638      -1.67936087    
   0.00000000       0.00000000       0.00000000       73.1088638      -1.67936087    
   1.85819399      0.419692010      -0.00000000       73.1088638      -1.67936087    
   1.80988598      0.594424009      -0.00000000       73.0041428      -1.67903495    
   1.82783401      0.536701024      -0.00000000       73.0041428      -1.67903495    
   0.00000000       0.00000000       0.00000000       73.0041428      -1.67903495    
   1.79011405      0.651548028      -0.00000000       73.0041428      -1.67903495    
   0.00000000       0.00000000       0.00000000       73.0124054      -1.67933381    
   1.82783401      0.536701024      -0.00000000       73.0124054      -1.67933381    
   1.84394205      0.478437006      -0.00000000       73.0124054      -1.67933381    
   1.85819399      0.419692010      -0.00000000       73.0124054      -1.67933381    
   1.76854098      0.708016992      -0.00000000       73.1482162      -1.67831767    
   1.79011405      0.651548028      -0.00000000       73.1482162      -1.67831767    
   0.00000000       0.00000000       0.00000000       73.1482162      -1.67831767    
   1.74518704      0.763773024      -0.00000000       73.1482162      -1.67831767    
   1.66468298      0.926204979      -0.00000000       73.9554367      -1.67548871    
   1.69323206      0.872922003      -0.00000000       73.9554367      -1.67548871    
   0.00000000       0.00000000       0.00000000       73.9554367      -1.67548871    
   1.63445795      0.978555024      -0.00000000       73.9554367      -1.67548871    
   0.00000000       0.00000000       0.00000000       73.4599762      -1.67714512    
   1.69323206      0.872922003      -0.00000000       73.4599762      -1.67714512    
   1.72007501      0.818759024      -0.00000000       73.4599762      -1.67714512    
   1.74518704      0.763773024      -0.00000000       73.4599762      -1.67714512    
   1.60258806       1.02992105      -0.00000000       74.5727463      -1.67349064    
   1.63445795      0.978555024      -0.00000000       74.5727463      -1.67349064    
   0.00000000       0.00000000       0.00000000       74.5727463      -1.67349064    
   1.56910396       1.08024895      -0.00000000       74.5727463      -1.67349064    
   1.45931494       1.22450995      -0.00000000       75.3745346      -1.67010534    
   1.49743104       1.17759299      -0.00000000       75.3745346      -1.67010534    
   0.00000000       0.00000000       0.00000000       75.3745346      -1.67010534    
   1.41972899       1.27019501      -0.00000000       75.3745346      -1.67010534    
   0.00000000       0.00000000       0.00000000       75.1615143      -1.67146790    
   1.49743104       1.17759299      -0.00000000       75.1615143      -1.67146790    
   1.53403997       1.12949002      -0.00000000       75.1615143      -1.67146790    
   1.56910396       1.08024895      -0.00000000       75.1615143      -1.67146790    
   1.37871301       1.31459999      -0.00000000       73.9510193      -1.67198408    
   1.41972899       1.27019501      -0.00000000       73.9510193      -1.67198408    
   0.00000000       0.00000000       0.00000000       73.9510193      -1.67198408    
   1.33631003       1.35768199      -0.00000000       73.9510193      -1.67198408    
   1.20120299       1.47855902      -0.00000000       62.9445839      -1.69620979    
   1.24750996       1.43970299      -0.00000000       62.9445839      -1.69620979    
   0.00000000       0.00000000       0.00000000       62.9445839      -1.69620979    
   1.15368605       1.51592600      -0.00000000       62.9445839      -1.69620979    
   0.00000000       0.00000000       0.00000000       69.2687683      -1.68121159    
   1.24750996       1.43970299      -0.00000000       69.2687683      -1.68121159    
   1.29255998       1.39939702      -0.00000000       69.2687683      -1.68121159    
   1.33631003       1.35768199      -0.00000000       69.2687683      -1.68121159    
   1.10500801       1.55176699      -0.00000000       56.4048920      -1.71515548    
   1.15368605       1.51592600      -0.00000000       56.4048920      -1.71515548    
   0.00000000       0.00000000       0.00000000       56.4048920      -1.71515548    
   1.05521798       1.58604598      -0.00000000       56.4048920      -1.71515548    
  0.899676025       1.67916906      -0.00000000       43.9068260      -1.76626897    
  0.952499986       1.64977801      -0.00000000       43.9068260      -1.76626897    
   0.00000000       0.00000000       0.00000000       43.9068260      -1.76626897    
  0.845947027       1.70686805      -0.00000000       43.9068260      -1.76626897    
   0.00000000       0.00000000       0.00000000       50.0207062      -1.73820257    
  0.952499986       1.64977801      -0.00000000       50.0207062      -1.73820257    
   1.00436401       1.61872697      -0.00000000       50.0207062      -1.73820257    
   1.05521798       1.58604598      -0.00000000       50.0207062      -1.73820257    
  0.791365981       1.73284900      -0.00000000       38.1037941      -1.80090201    
  0.845947027       1.70686805      -0.00000000       38.1037941      -1.80090201    
   0.00000000       0.00000000       0.00000000       38.1037941      -1.80090201    
  0.735987008       1.75708497      -0.00000000       38.1037941      -1.80090201    
  0.565632999       1.81908906      -0.00000000       27.4479961      -1.90206587    
  0.623063982       1.80022705      -0.00000000       27.4479961      -1.90206587    
   0.00000000       0.00000000       0.00000000       27.4479961      -1.90206587    
  0.507632971       1.83611906      -0.00000000       27.4479961      -1.90206587    
   0.00000000       0.00000000       0.00000000       32.6262283      -1.84462583    
  0.623063982       1.80022705      -0.00000000       32.6262283      -1.84462583    
  0.679867983       1.77955198      -0.00000000       32.6262283      -1.84462583    
  0.735987008       1.75708497      -0.00000000       32.6262283      -1.84462583    
  0.449120998       1.85130095      -0.00000000       22.5511799      -1.98166430    
  0.507632971       1.83611906      -0.00000000       22.5511799      -1.98166430    
   0.00000000       0.00000000       0.00000000       22.5511799      -1.98166430    
  0.390157014       1.86461902      -0.00000000       22.5511799      -1.98166430    
  0.211146995       1.89326203      -0.00000000       13.8520813      -2.28785491    
  0.271109998       1.88560998      -0.00000000       13.8520813      -2.28785491    
   0.00000000       0.00000000       0.00000000       13.8520813      -2.28785491    
  0.150970995       1.89900804      -0.00000000       13.8520813      -2.28785491    
   0.00000000       0.00000000       0.00000000       17.9681969      -2.09963083    
  0.271109998       1.88560998      -0.00000000       17.9681969      -2.09963083    
  0.330799997       1.87605906      -0.00000000       17.9681969      -2.09963083    
  0.390157014       1.86461902      -0.00000000       17.9681969      -2.09963083    
   9.06440020E-02   1.90284204      -0.00000000       10.6050959      -2.60657001    
  0.150970995       1.89900804      -0.00000000       10.6050959      -2.60657001    
   0.00000000       0.00000000       0.00000000       10.6050959      -2.60657001    
   3.02249994E-02   1.90476000      -0.00000000       10.6050959      -2.60657001    
 -0.150970995       1.89900804      -0.00000000       10.2323704       2.66957426    
  -9.06440020E-02   1.90284204      -0.00000000       10.2323704       2.66957426    
   0.00000000       0.00000000       0.00000000       10.2323704       2.66957426    
 -0.211146995       1.89326203      -0.00000000       10.2323704       2.66957426    
   0.00000000       0.00000000       0.00000000       9.13452721      -3.10034943    
  -9.06440020E-02   1.90284204      -0.00000000       9.13452721      -3.10034943    
  -3.02249994E-02   1.90476000      -0.00000000       9.13452721      -3.10034943    
   3.02249994E-02   1.90476000      -0.00000000       9.13452721      -3.10034943    
 -0.271109998       1.88560998      -0.00000000       13.3090439       2.32171035    
 -0.211146995       1.89326203      -0.00000000       13.3090439       2.32171035    
   0.00000000       0.00000000       0.00000000       13.3090439       2.32171035    
 -0.330799997       1.87605906      -0.00000000       13.3090439       2.32171035    
 -0.507632971       1.83611906      -0.00000000       22.0968685       1.98794997    
 -0.449120998       1.85130095      -0.00000000       22.0968685       1.98794997    
   0.00000000       0.00000000       0.00000000       22.0968685       1.98794997    
 -0.565632999       1.81908906      -0.00000000       22.0968685       1.98794997    
   0.00000000       0.00000000       0.00000000       17.4239178       2.11545157    
 -0.449120998       1.85130095      -0.00000000       17.4239178       2.11545157    
 -0.390157014       1.86461902      -0.00000000       17.4239178       2.11545157    
 -0.330799997       1.87605906      -0.00000000       17.4239178       2.11545157    
 -0.623063982       1.80022705      -0.00000000       27.1739140       1.90260887    
 -0.565632999       1.81908906      -0.00000000       27.1739140       1.90260887    
   0.00000000       0.00000000       0.00000000       27.1739140       1.90260887    
 -0.679867983       1.77955198      -0.00000000       27.1739140       1.90260887    
 -0.845947027       1.70686805      -0.00000000       38.3444595       1.79608035    
 -0.791365981       1.73284900      -0.00000000       38.3444595       1.79608035    
   0.00000000       0.00000000       0.00000000       38.3444595       1.79608035    
 -0.899676025       1.67916906      -0.00000000       38.3444595       1.79608035    
   0.00000000       0.00000000       0.00000000       32.6051903       1.84163296    
 -0.791365981       1.73284900      -0.00000000       32.6051903       1.84163296    
 -0.735987008       1.75708497      -0.00000000       32.6051903       1.84163296    
 -0.679867983       1.77955198      -0.00000000       32.6051903       1.84163296    
 -0.952499986       1.64977801      -0.00000000       44.3749199       1.76078236    
 -0.899676025       1.67916906      -0.00000000       44.3749199       1.76078236    
   0.00000000       0.00000000       0.00000000       44.3749199       1.76078236    
  -1.00436401       1.61872697      -0.00000000       44.3749199       1.76078236    
  -1.15368605       1.51592600      -0.00000000       56.9383659       1.71080828    
  -1.10500801       1.55176699      -0.00000000       56.9383659       1.71080828    
   0.00000000       0.00000000       0.00000000       56.9383659       1.71080828    
  -1.20120299       1.47855902      -0.00000000       56.9383659       1.71080828    
   0.00000000       0.00000000       0.00000000       50.6266594       1.73289406    
  -1.10500801       1.55176699      -0.00000000       50.6266594       1.73289406    
  -1.05521798       1.58604598      -0.00000000       50.6266594       1.73289406    
  -1.00436401       1.61872697      -0.00000000       50.6266594       1.73289406    
  -1.24750996       1.43970299      -0.00000000       62.9635239       1.69380343    
  -1.20120299       1.47855902      -0.00000000       62.9635239       1.69380343    
   0.00000000       0.00000000       0.00000000       62.9635239       1.69380343    
  -1.29255998       1.39939702      -0.00000000       62.9635239       1.69380343    
  -1.41972899       1.27019501      -0.00000000       68.7848740       1.68135417    
  -1.37871301       1.31459999      -0.00000000       68.7848740       1.68135417    
   0.00000000       0.00000000       0.00000000       68.7848740       1.68135417    
  -1.45931494       1.22450995      -0.00000000       68.7848740       1.68135417    
   0.00000000       0.00000000       0.00000000       67.4470673       1.68338215    
  -1.37871301       1.31459999      -0.00000000       67.4470673       1.68338215    
  -1.33631003       1.35768199      -0.00000000       67.4470673       1.68338215    
  -1.29255998       1.39939702      -0.00000000       67.4470673       1.68338215    
  -1.49743104       1.17759299      -0.00000000       68.5007858       1.68311739    
  -1.45931494       1.22450995      -0.00000000       68.5007858       1.68311739    
   0.00000000       0.00000000       0.00000000       68.5007858       1.68311739    
  -1.53403997       1.12949002      -0.00000000       68.5007858       1.68311739    
  -1.63445795      0.978555024      -0.00000000       67.4526520       1.68747771    
  -1.60258806       1.02992105      -0.00000000       67.4526520       1.68747771    
   0.00000000       0.00000000       0.00000000       67.4526520       1.68747771    
  -1.66468298      0.926204979      -0.00000000       67.4526520       1.68747771    
   0.00000000       0.00000000       0.00000000       67.9419937       1.68543315    
  -1.60258806       1.02992105      -0.00000000       67.9419937       1.68543315    
  -1.56910396       1.08024895      -0.00000000       67.9419937       1.68543315    
  -1.53403997       1.12949002      -0.00000000       67.9419937       1.68543315    
  -1.69323206      0.872922003      -0.00000000       67.1274490       1.68900549    
  -1.66468298      0.926204979      -0.00000000       67.1274490       1.68900549    
   0.00000000       0.00000000       0.00000000       67.1274490       1.68900549    
  -1.72007501      0.818759024      -0.00000000       67.1274490       1.68900549    
  -1.79011405      0.651548028      -0.00000000       67.0786057       1.69019997    
  -1.76854098      0.708016992      -0.00000000       67.0786057       1.69019997    
   0.00000000       0.00000000       0.00000000       67.0786057       1.69019997    
  -1.80988598      0.594424009      -0.00000000       67.0786057       1.69019997    
   0.00000000       0.00000000       0.00000000       67.0079498       1.68989992    
  -1.76854098      0.708016992      -0.00000000       67.0079498       1.68989992    
  -1.74518704      0.763773024      -0.00000000       67.0079498       1.68989992    
  -1.72007501      0.818759024      -0.00000000       67.0079498       1.68989992    
  -1.82783401      0.536701024      -0.00000000       67.2694168       1.69009519    
  -1.80988598      0.594424009      -0.00000000       67.2694168       1.69009519    
   0.00000000       0.00000000       0.00000000       67.2694168       1.69009519    
  -1.84394205      0.478437006      -0.00000000       67.2694168       1.69009519    
  -1.88107097      0.300992996      -0.00000000       67.7515488       1.68937695    
  -1.87057400      0.360523999      -0.00000000       67.7515488       1.68937695    
   0.00000000       0.00000000       0.00000000       67.7515488       1.68937695    
  -1.88967395      0.241159007      -0.00000000       67.7515488       1.68937695    
   0.00000000       0.00000000       0.00000000       67.5158997       1.68976104    
  -1.87057400      0.360523999      -0.00000000       67.5158997       1.68976104    
  -1.85819399      0.419692010      -0.00000000       67.5158997       1.68976104    
  -1.84394205      0.478437006      -0.00000000       67.5158997       1.68976104    
  -1.89637399      0.181081995      -0.00000000       67.9574890       1.68899572    
  -1.88967395      0.241159007      -0.00000000       67.9574890       1.68899572    
   0.00000000       0.00000000       0.00000000       67.9574890       1.68899572    
  -1.90116501      0.120823003      -0.00000000       67.9574890       1.68899572    
  -1.90404105      -6.04420006E-02  -0.00000000       68.0843277       1.68873978    
  -1.90499997       0.00000000      -0.00000000       68.0843277       1.68873978    
   0.00000000       0.00000000       0.00000000       68.0843277       1.68873978    
  -1.90116501     -0.120823003      -0.00000000       68.0843277       1.68873978    
   0.00000000       0.00000000       0.00000000       68.0772934       1.68876040    
  -1.90499997       0.00000000      -0.00000000       68.0772934       1.68876040    
  -1.90404105       6.04420006E-02  -0.00000000       68.0772934       1.68876040    
  -1.90116501      0.120823003      -0.00000000       68.0772934       1.68876040    
  -1.89637399     -0.181081995      -0.00000000       67.9913559       1.68889880    
  -1.90116501     -0.120823003      -0.00000000       67.9913559       1.68889880    
   0.00000000       0.00000000       0.00000000       67.9913559       1.68889880    
  -1.88967395     -0.241159007      -0.00000000       67.9913559       1.68889880    
  -1.85819399     -0.419692010      -0.00000000       67.6716919       1.68934143    
  -1.87057400     -0.360523999      -0.00000000       67.6716919       1.68934143    
   0.00000000       0.00000000       0.00000000       67.6716919       1.68934143    
  -1.84394205     -0.478437006      -0.00000000       67.6716919       1.68934143    
   0.00000000       0.00000000       0.00000000       67.8448868       1.68912268    
  -1.87057400     -0.360523999      -0.00000000       67.8448868       1.68912268    
  -1.88107097     -0.300992996      -0.00000000       67.8448868       1.68912268    
  -1.88967395     -0.241159007      -0.00000000       67.8448868       1.68912268    
  -1.82783401     -0.536701024      -0.00000000       67.4993744       1.68947911    
  -1.84394205     -0.478437006      -0.00000000       67.4993744       1.68947911    
   0.00000000       0.00000000       0.00000000       67.4993744       1.68947911    
  -1.80988598     -0.594424009      -0.00000000       67.4993744       1.68947911    
  -1.74518704     -0.763773024      -0.00000000       67.4591064       1.68870842    
  -1.76854098     -0.708016992      -0.00000000       67.4591064       1.68870842    
   0.00000000       0.00000000       0.00000000       67.4591064       1.68870842    
  -1.72007501     -0.818759024      -0.00000000       67.4591064       1.68870842    
   0.00000000       0.00000000       0.00000000       67.4086685       1.68932104    
  -1.76854098     -0.708016992      -0.00000000       67.4086685       1.68932104    
  -1.79011405     -0.651548028      -0.00000000       67.4086685       1.68932104    
  -1.80988598     -0.594424009      -0.00000000       67.4086685       1.68932104    
  -1.69323206     -0.872922003      -0.00000000       67.6660919       1.68759632    
  -1.72007501     -0.818759024      -0.00000000       67.6660919       1.68759632    
   0.00000000       0.00000000       0.00000000       67.6660919       1.68759632    
  -1.66468298     -0.926204979      -0.00000000       67.6660919       1.68759632    
  -1.56910396      -1.08024895      -0.00000000       68.5066681       1.68399370    
  -1.60258806      -1.02992105      -0.00000000       68.5066681       1.68399370    
   0.00000000       0.00000000       0.00000000       68.5066681       1.68399370    
  -1.53403997      -1.12949002      -0.00000000       68.5066681       1.68399370    
   0.00000000       0.00000000       0.00000000       68.0338211       1.68597651    
  -1.60258806      -1.02992105      -0.00000000       68.0338211       1.68597651    
  -1.63445795     -0.978555024      -0.00000000       68.0338211       1.68597651    
  -1.66468298     -0.926204979      -0.00000000       68.0338211       1.68597651    
  -1.49743104      -1.17759299      -0.00000000       68.9436340       1.68199003    
  -1.53403997      -1.12949002      -0.00000000       68.9436340       1.68199003    
   0.00000000       0.00000000       0.00000000       68.9436340       1.68199003    
  -1.45931494      -1.22450995      -0.00000000       68.9436340       1.68199003    
  -1.33631003      -1.35768199      -0.00000000       67.4590836       1.68325078    
  -1.37871301      -1.31459999      -0.00000000       67.4590836       1.68325078    
   0.00000000       0.00000000       0.00000000       67.4590836       1.68325078    
  -1.29255998      -1.39939702      -0.00000000       67.4590836       1.68325078    
   0.00000000       0.00000000       0.00000000       69.0065155       1.68074691    
  -1.37871301      -1.31459999      -0.00000000       69.0065155       1.68074691    
  -1.41972899      -1.27019501      -0.00000000       69.0065155       1.68074691    
  -1.45931494      -1.22450995      -0.00000000       69.0065155       1.68074691    
  -1.24750996      -1.43970299      -0.00000000       62.7596054       1.69424951    
  -1.29255998      -1.39939702      -0.00000000       62.7596054       1.69424951    
   0.00000000       0.00000000       0.00000000       62.7596054       1.69424951    
  -1.20120299      -1.47855902      -0.00000000       62.7596054       1.69424951    
  -1.05521798      -1.58604598      -0.00000000       50.0255051       1.73529720    
  -1.10500801      -1.55176699      -0.00000000       50.0255051       1.73529720    
   0.00000000       0.00000000       0.00000000       50.0255051       1.73529720    
  -1.00436401      -1.61872697      -0.00000000       50.0255051       1.73529720    
   0.00000000       0.00000000       0.00000000       56.4944801       1.71217239    
  -1.10500801      -1.55176699      -0.00000000       56.4944801       1.71217239    
  -1.15368605      -1.51592600      -0.00000000       56.4944801       1.71217239    
  -1.20120299      -1.47855902      -0.00000000       56.4944801       1.71217239    
 -0.952499986      -1.64977801      -0.00000000       43.7136040       1.76424170    
  -1.00436401      -1.61872697      -0.00000000       43.7136040       1.76424170    
   0.00000000       0.00000000       0.00000000       43.7136040       1.76424170    
 -0.899676025      -1.67916906      -0.00000000       43.7136040       1.76424170    
 -0.735987008      -1.75708497      -0.00000000       31.9648533       1.84781563    
 -0.791365981      -1.73284900      -0.00000000       31.9648533       1.84781563    
   0.00000000       0.00000000       0.00000000       31.9648533       1.84781563    
 -0.679867983      -1.77955198      -0.00000000       31.9648533       1.84781563    
   0.00000000       0.00000000       0.00000000       37.6775322       1.80075240    
 -0.791365981      -1.73284900      -0.00000000       37.6775322       1.80075240    
 -0.845947027      -1.70686805      -0.00000000       37.6775322       1.80075240    
 -0.899676025      -1.67916906      -0.00000000       37.6775322       1.80075240    
 -0.623063982      -1.80022705      -0.00000000       26.6059761       1.91051269    
 -0.679867983      -1.77955198      -0.00000000       26.6059761       1.91051269    
   0.00000000       0.00000000       0.00000000       26.6059761       1.91051269    
 -0.565632999      -1.81908906      -0.00000000       26.6059761       1.91051269    
 -0.390157014      -1.86461902      -0.00000000       16.9955444       2.13119674    
 -0.449120998      -1.85130095      -0.00000000       16.9955444       2.13119674    
   0.00000000       0.00000000       0.00000000       16.9955444       2.13119674    
 -0.330799997      -1.87605906      -0.00000000       16.9955444       2.13119674    
   0.00000000       0.00000000       0.00000000       21.6018333       1.99859202    
 -0.449120998      -1.85130095      -0.00000000       21.6018333       1.99859202    
 -0.507632971      -1.83611906      -0.00000000       21.6018333       1.99859202    
 -0.565632999      -1.81908906      -0.00000000       21.6018333       1.99859202    
 -0.271109998      -1.88560998      -0.00000000       12.9675045       2.34691358    
 -0.330799997      -1.87605906      -0.00000000       12.9675045       2.34691358    
   0.00000000       0.00000000       0.00000000       12.9675045       2.34691358    
 -0.211146995      -1.89326203      -0.00000000       12.9675045       2.34691358    
  -3.02249994E-02  -1.90476000      -0.00000000       9.16399384      -3.05030823    
  -9.06440020E-02  -1.90284204      -0.00000000       9.16399384      -3.05030823    
   0.00000000       0.00000000       0.00000000       9.16399384      -3.05030823    
   3.02249994E-02  -1.90476000      -0.00000000       9.16399384      -3.05030823    
   0.00000000       0.00000000       0.00000000       10.0317802       2.71043372    
  -9.06440020E-02  -1.90284204      -0.00000000       10.0317802       2.71043372    
 -0.150970995      -1.89900804      -0.00000000       10.0317802       2.71043372    
 -0.211146995      -1.89326203      -0.00000000       10.0317802       2.71043372    
   9.06440020E-02  -1.90284204      -0.00000000       10.8461981      -2.56994033    
   3.02249994E-02  -1.90476000      -0.00000000       10.8461981      -2.56994033    
   0.00000000       0.00000000       0.00000000       10.8461981      -2.56994033    
  0.150970995      -1.89900804      -0.00000000       10.8461981      -2.56994033    
  0.330799997      -1.87605906      -0.00000000       18.3888054      -2.08596992    
  0.271109998      -1.88560998      -0.00000000       18.3888054      -2.08596992    
   0.00000000       0.00000000       0.00000000       18.3888054      -2.08596992    
  0.390157014      -1.86461902      -0.00000000       18.3888054      -2.08596992    
   0.00000000       0.00000000       0.00000000       14.2043133      -2.26618886    
  0.271109998      -1.88560998      -0.00000000       14.2043133      -2.26618886    
  0.211146995      -1.89326203      -0.00000000       14.2043133      -2.26618886    
  0.150970995      -1.89900804      -0.00000000       14.2043133      -2.26618886    
  0.449120998      -1.85130095      -0.00000000       23.0309620      -1.97220981    
  0.390157014      -1.86461902      -0.00000000       23.0309620      -1.97220981    
   0.00000000       0.00000000       0.00000000       23.0309620      -1.97220981    
  0.507632971      -1.83611906      -0.00000000       23.0309620      -1.97220981    
  0.679867983      -1.77955198      -0.00000000       33.2362823      -1.83895767    
  0.623063982      -1.80022705      -0.00000000       33.2362823      -1.83895767    
   0.00000000       0.00000000       0.00000000       33.2362823      -1.83895767    
  0.735987008      -1.75708497      -0.00000000       33.2362823      -1.83895767    
   0.00000000       0.00000000       0.00000000       27.9853992      -1.89502180    
  0.623063982      -1.80022705      -0.00000000       27.9853992      -1.89502180    
  0.565632999      -1.81908906      -0.00000000       27.9853992      -1.89502180    
  0.507632971      -1.83611906      -0.00000000       27.9853992      -1.89502180    
  0.791365981      -1.73284900      -0.00000000       38.7896919      -1.79617357    
  0.735987008      -1.75708497      -0.00000000       38.7896919      -1.79617357    
   0.00000000       0.00000000       0.00000000       38.7896919      -1.79617357    
  0.845947027      -1.70686805      -0.00000000       38.7896919      -1.79617357    
   1.00436401      -1.61872697      -0.00000000       50.7353592      -1.73527825    
  0.952499986      -1.64977801      -0.00000000       50.7353592      -1.73527825    
   0.00000000       0.00000000       0.00000000       50.7353592      -1.73527825    
   1.05521798      -1.58604598      -0.00000000       50.7353592      -1.73527825    
   0.00000000       0.00000000       0.00000000       44.6233253      -1.76249719    
  0.952499986      -1.64977801      -0.00000000       44.6233253      -1.76249719    
  0.899676025      -1.67916906      -0.00000000       44.6233253      -1.76249719    
  0.845947027      -1.70686805      -0.00000000       44.6233253      -1.76249719    
   1.10500801      -1.55176699      -0.00000000       57.0627594      -1.71303034    
   1.05521798      -1.58604598      -0.00000000       57.0627594      -1.71303034    
   0.00000000       0.00000000       0.00000000       57.0627594      -1.71303034    
   1.15368605      -1.51592600      -0.00000000       57.0627594      -1.71303034    
   1.29255998      -1.39939702      -0.00000000       69.5270538      -1.68070722    
   1.24750996      -1.43970299      -0.00000000       69.5270538      -1.68070722    
   0.00000000       0.00000000       0.00000000       69.5270538      -1.68070722    
   1.33631003      -1.35768199      -0.00000000       69.5270538      -1.68070722    
   0.00000000       0.00000000       0.00000000       63.4482651      -1.69491863    
   1.24750996      -1.43970299      -0.00000000       63.4482651      -1.69491863    
   1.20120299      -1.47855902      -0.00000000       63.4482651      -1.69491863    