 VARIABLES="X" "Y" "Z" "abs(p) (Pa)" "angle(p) (rad)"
ZONE N=    802,E =     800, F=FEPOINT, ET=QUADRILATERAL
   1.90499997       0.00000000      -0.00000000       1.50446057       1.51330304    
   1.90404105      -6.04420006E-02  -0.00000000       1.50446057       1.51330304    
   0.00000000       0.00000000       0.00000000       1.50446057       1.51330304    
   1.90404105       6.04420006E-02  -0.00000000       1.50446057       1.51330304    
   1.88967395      0.241159007      -0.00000000       80.9505692       1.58551991    
   1.89637399      0.181081995      -0.00000000       80.9505692       1.58551991    
   0.00000000       0.00000000       0.00000000       80.9505692       1.58551991    
   1.88107097      0.300992996      -0.00000000       80.9505692       1.58551991    
   0.00000000       0.00000000       0.00000000       41.1812859       1.58435333    
   1.89637399      0.181081995      -0.00000000       41.1812859       1.58435333    
   1.90116501      0.120823003      -0.00000000       41.1812859       1.58435333    
   1.90404105       6.04420006E-02  -0.00000000       41.1812859       1.58435333    
   1.87057400      0.360523999      -0.00000000       121.403923       1.58543396    
   1.88107097      0.300992996      -0.00000000       121.403923       1.58543396    
   0.00000000       0.00000000       0.00000000       121.403923       1.58543396    
   1.85819399      0.419692010      -0.00000000       121.403923       1.58543396    
   1.80988598      0.594424009      -0.00000000       206.105576       1.58369577    
   1.82783401      0.536701024      -0.00000000       206.105576       1.58369577    
   0.00000000       0.00000000       0.00000000       206.105576       1.58369577    
   1.79011405      0.651548028      -0.00000000       206.105576       1.58369577    
   0.00000000       0.00000000       0.00000000       163.035782       1.58476222    
   1.82783401      0.536701024      -0.00000000       163.035782       1.58476222    
   1.84394205      0.478437006      -0.00000000       163.035782       1.58476222    
   1.85819399      0.419692010      -0.00000000       163.035782       1.58476222    
   1.76854098      0.708016992      -0.00000000       251.326569       1.58218515    
   1.79011405      0.651548028      -0.00000000       251.326569       1.58218515    
   0.00000000       0.00000000       0.00000000       251.326569       1.58218515    
   1.74518704      0.763773024      -0.00000000       251.326569       1.58218515    
   1.66468298      0.926204979      -0.00000000       350.163116       1.57798946    
   1.69323206      0.872922003      -0.00000000       350.163116       1.57798946    
   0.00000000       0.00000000       0.00000000       350.163116       1.57798946    
   1.63445795      0.978555024      -0.00000000       350.163116       1.57798946    
   0.00000000       0.00000000       0.00000000       299.334717       1.58024490    
   1.69323206      0.872922003      -0.00000000       299.334717       1.58024490    
   1.72007501      0.818759024      -0.00000000       299.334717       1.58024490    
   1.74518704      0.763773024      -0.00000000       299.334717       1.58024490    
   1.60258806       1.02992105      -0.00000000       403.141602       1.57560873    
   1.63445795      0.978555024      -0.00000000       403.141602       1.57560873    
   0.00000000       0.00000000       0.00000000       403.141602       1.57560873    
   1.56910396       1.08024895      -0.00000000       403.141602       1.57560873    
   1.45931494       1.22450995      -0.00000000       507.672424       1.57146859    
   1.49743104       1.17759299      -0.00000000       507.672424       1.57146859    
   0.00000000       0.00000000       0.00000000       507.672424       1.57146859    
   1.41972899       1.27019501      -0.00000000       507.672424       1.57146859    
   0.00000000       0.00000000       0.00000000       456.837860       1.57330334    
   1.49743104       1.17759299      -0.00000000       456.837860       1.57330334    
   1.53403997       1.12949002      -0.00000000       456.837860       1.57330334    
   1.56910396       1.08024895      -0.00000000       456.837860       1.57330334    
   1.37871301       1.31459999      -0.00000000       543.981567       1.57141733    
   1.41972899       1.27019501      -0.00000000       543.981567       1.57141733    
   0.00000000       0.00000000       0.00000000       543.981567       1.57141733    
   1.33631003       1.35768199      -0.00000000       543.981567       1.57141733    
   1.20120299       1.47855902      -0.00000000       543.746948       1.57970667    
   1.24750996       1.43970299      -0.00000000       543.746948       1.57970667    
   0.00000000       0.00000000       0.00000000       543.746948       1.57970667    
   1.15368605       1.51592600      -0.00000000       543.746948       1.57970667    
   0.00000000       0.00000000       0.00000000       551.290710       1.57474864    
   1.24750996       1.43970299      -0.00000000       551.290710       1.57474864    
   1.29255998       1.39939702      -0.00000000       551.290710       1.57474864    
   1.33631003       1.35768199      -0.00000000       551.290710       1.57474864    
   1.10500801       1.55176699      -0.00000000       533.584290       1.58478618    
   1.15368605       1.51592600      -0.00000000       533.584290       1.58478618    
   0.00000000       0.00000000       0.00000000       533.584290       1.58478618    
   1.05521798       1.58604598      -0.00000000       533.584290       1.58478618    
  0.899676025       1.67916906      -0.00000000       517.732056       1.59356415    
  0.952499986       1.64977801      -0.00000000       517.732056       1.59356415    
   0.00000000       0.00000000       0.00000000       517.732056       1.59356415    
  0.845947027       1.70686805      -0.00000000       517.732056       1.59356415    
   0.00000000       0.00000000       0.00000000       524.485291       1.58948290    
  0.952499986       1.64977801      -0.00000000       524.485291       1.58948290    
   1.00436401       1.61872697      -0.00000000       524.485291       1.58948290    
   1.05521798       1.58604598      -0.00000000       524.485291       1.58948290    
  0.791365981       1.73284900      -0.00000000       514.038452       1.59686351    
  0.845947027       1.70686805      -0.00000000       514.038452       1.59686351    
   0.00000000       0.00000000       0.00000000       514.038452       1.59686351    
  0.735987008       1.75708497      -0.00000000       514.038452       1.59686351    
  0.565632999       1.81908906      -0.00000000       513.718567       1.60126710    
  0.623063982       1.80022705      -0.00000000       513.718567       1.60126710    
   0.00000000       0.00000000       0.00000000       513.718567       1.60126710    
  0.507632971       1.83611906      -0.00000000       513.718567       1.60126710    
   0.00000000       0.00000000       0.00000000       512.897461       1.59941268    
  0.623063982       1.80022705      -0.00000000       512.897461       1.59941268    
  0.679867983       1.77955198      -0.00000000       512.897461       1.59941268    
  0.735987008       1.75708497      -0.00000000       512.897461       1.59941268    
  0.449120998       1.85130095      -0.00000000       515.625916       1.60256386    
  0.507632971       1.83611906      -0.00000000       515.625916       1.60256386    
   0.00000000       0.00000000       0.00000000       515.625916       1.60256386    
  0.390157014       1.86461902      -0.00000000       515.625916       1.60256386    
  0.211146995       1.89326203      -0.00000000       520.100708       1.60389340    
  0.271109998       1.88560998      -0.00000000       520.100708       1.60389340    
   0.00000000       0.00000000       0.00000000       520.100708       1.60389340    
  0.150970995       1.89900804      -0.00000000       520.100708       1.60389340    
   0.00000000       0.00000000       0.00000000       517.999695       1.60339725    
  0.271109998       1.88560998      -0.00000000       517.999695       1.60339725    
  0.330799997       1.87605906      -0.00000000       517.999695       1.60339725    
  0.390157014       1.86461902      -0.00000000       517.999695       1.60339725    
   9.06440020E-02   1.90284204      -0.00000000       521.462463       1.60413134    
  0.150970995       1.89900804      -0.00000000       521.462463       1.60413134    
   0.00000000       0.00000000       0.00000000       521.462463       1.60413134    
   3.02249994E-02   1.90476000      -0.00000000       521.462463       1.60413134    
 -0.150970995       1.89900804      -0.00000000       522.365356       1.60377765    
  -9.06440020E-02   1.90284204      -0.00000000       522.365356       1.60377765    
   0.00000000       0.00000000       0.00000000       522.365356       1.60377765    
 -0.211146995       1.89326203      -0.00000000       522.365356       1.60377765    
   0.00000000       0.00000000       0.00000000       522.255249       1.60408616    
  -9.06440020E-02   1.90284204      -0.00000000       522.255249       1.60408616    
  -3.02249994E-02   1.90476000      -0.00000000       522.255249       1.60408616    
   3.02249994E-02   1.90476000      -0.00000000       522.255249       1.60408616    
 -0.271109998       1.88560998      -0.00000000       521.809631       1.60320354    
 -0.211146995       1.89326203      -0.00000000       521.809631       1.60320354    
   0.00000000       0.00000000       0.00000000       521.809631       1.60320354    
 -0.330799997       1.87605906      -0.00000000       521.809631       1.60320354    
 -0.507632971       1.83611906      -0.00000000       521.368469       1.60084200    
 -0.449120998       1.85130095      -0.00000000       521.368469       1.60084200    
   0.00000000       0.00000000       0.00000000       521.368469       1.60084200    
 -0.565632999       1.81908906      -0.00000000       521.368469       1.60084200    
   0.00000000       0.00000000       0.00000000       521.256836       1.60226202    
 -0.449120998       1.85130095      -0.00000000       521.256836       1.60226202    
 -0.390157014       1.86461902      -0.00000000       521.256836       1.60226202    
 -0.330799997       1.87605906      -0.00000000       521.256836       1.60226202    
 -0.623063982       1.80022705      -0.00000000       522.765686       1.59885764    
 -0.565632999       1.81908906      -0.00000000       522.765686       1.59885764    
   0.00000000       0.00000000       0.00000000       522.765686       1.59885764    
 -0.679867983       1.77955198      -0.00000000       522.765686       1.59885764    
 -0.845947027       1.70686805      -0.00000000       532.411011       1.59281981    
 -0.791365981       1.73284900      -0.00000000       532.411011       1.59281981    
   0.00000000       0.00000000       0.00000000       532.411011       1.59281981    
 -0.899676025       1.67916906      -0.00000000       532.411011       1.59281981    
   0.00000000       0.00000000       0.00000000       526.276611       1.59619689    
 -0.791365981       1.73284900      -0.00000000       526.276611       1.59619689    
 -0.735987008       1.75708497      -0.00000000       526.276611       1.59619689    
 -0.679867983       1.77955198      -0.00000000       526.276611       1.59619689    
 -0.952499986       1.64977801      -0.00000000       541.117615       1.58876836    
 -0.899676025       1.67916906      -0.00000000       541.117615       1.58876836    
   0.00000000       0.00000000       0.00000000       541.117615       1.58876836    
  -1.00436401       1.61872697      -0.00000000       541.117615       1.58876836    
  -1.15368605       1.51592600      -0.00000000       562.541260       1.57933509    
  -1.10500801       1.55176699      -0.00000000       562.541260       1.57933509    
   0.00000000       0.00000000       0.00000000       562.541260       1.57933509    
  -1.20120299       1.47855902      -0.00000000       562.541260       1.57933509    
   0.00000000       0.00000000       0.00000000       551.672729       1.58419669    
  -1.10500801       1.55176699      -0.00000000       551.672729       1.58419669    
  -1.05521798       1.58604598      -0.00000000       551.672729       1.58419669    
  -1.00436401       1.61872697      -0.00000000       551.672729       1.58419669    
  -1.24750996       1.43970299      -0.00000000       570.157166       1.57462668    
  -1.20120299       1.47855902      -0.00000000       570.157166       1.57462668    
   0.00000000       0.00000000       0.00000000       570.157166       1.57462668    
  -1.29255998       1.39939702      -0.00000000       570.157166       1.57462668    
  -1.41972899       1.27019501      -0.00000000       524.939453       1.57167208    
  -1.37871301       1.31459999      -0.00000000       524.939453       1.57167208    
   0.00000000       0.00000000       0.00000000       524.939453       1.57167208    
  -1.45931494       1.22450995      -0.00000000       524.939453       1.57167208    
   0.00000000       0.00000000       0.00000000       562.569641       1.57146609    
  -1.37871301       1.31459999      -0.00000000       562.569641       1.57146609    
  -1.33631003       1.35768199      -0.00000000       562.569641       1.57146609    
  -1.29255998       1.39939702      -0.00000000       562.569641       1.57146609    
  -1.49743104       1.17759299      -0.00000000       471.987213       1.57376075    
  -1.45931494       1.22450995      -0.00000000       471.987213       1.57376075    
   0.00000000       0.00000000       0.00000000       471.987213       1.57376075    
  -1.53403997       1.12949002      -0.00000000       471.987213       1.57376075    
  -1.63445795      0.978555024      -0.00000000       362.857605       1.57897770    
  -1.60258806       1.02992105      -0.00000000       362.857605       1.57897770    
   0.00000000       0.00000000       0.00000000       362.857605       1.57897770    
  -1.66468298      0.926204979      -0.00000000       362.857605       1.57897770    
   0.00000000       0.00000000       0.00000000       416.649811       1.57634771    
  -1.60258806       1.02992105      -0.00000000       416.649811       1.57634771    
  -1.56910396       1.08024895      -0.00000000       416.649811       1.57634771    
  -1.53403997       1.12949002      -0.00000000       416.649811       1.57634771    
  -1.69323206      0.872922003      -0.00000000       311.908936       1.58144581    
  -1.66468298      0.926204979      -0.00000000       311.908936       1.58144581    
   0.00000000       0.00000000       0.00000000       311.908936       1.58144581    
  -1.72007501      0.818759024      -0.00000000       311.908936       1.58144581    
  -1.79011405      0.651548028      -0.00000000       219.993286       1.58513725    
  -1.76854098      0.708016992      -0.00000000       219.993286       1.58513725    
   0.00000000       0.00000000       0.00000000       219.993286       1.58513725    
  -1.80988598      0.594424009      -0.00000000       219.993286       1.58513725    
   0.00000000       0.00000000       0.00000000       264.471863       1.58351374    
  -1.76854098      0.708016992      -0.00000000       264.471863       1.58351374    
  -1.74518704      0.763773024      -0.00000000       264.471863       1.58351374    
  -1.72007501      0.818759024      -0.00000000       264.471863       1.58351374    
  -1.82783401      0.536701024      -0.00000000       177.620056       1.58632827    
  -1.80988598      0.594424009      -0.00000000       177.620056       1.58632827    
   0.00000000       0.00000000       0.00000000       177.620056       1.58632827    
  -1.84394205      0.478437006      -0.00000000       177.620056       1.58632827    
  -1.88107097      0.300992996      -0.00000000       96.7855911       1.58766854    
  -1.87057400      0.360523999      -0.00000000       96.7855911       1.58766854    
   0.00000000       0.00000000       0.00000000       96.7855911       1.58766854    
  -1.88967395      0.241159007      -0.00000000       96.7855911       1.58766854    
   0.00000000       0.00000000       0.00000000       136.696503       1.58716691    
  -1.87057400      0.360523999      -0.00000000       136.696503       1.58716691    
  -1.85819399      0.419692010      -0.00000000       136.696503       1.58716691    
  -1.84394205      0.478437006      -0.00000000       136.696503       1.58716691    
  -1.89637399      0.181081995      -0.00000000       57.3049202       1.58800864    
  -1.88967395      0.241159007      -0.00000000       57.3049202       1.58800864    
   0.00000000       0.00000000       0.00000000       57.3049202       1.58800864    
  -1.90116501      0.120823003      -0.00000000       57.3049202       1.58800864    
  -1.90404105      -6.04420006E-02  -0.00000000       21.5555058      -1.55504644    
  -1.90499997       0.00000000      -0.00000000       21.5555058      -1.55504644    
   0.00000000       0.00000000       0.00000000       21.5555058      -1.55504644    
  -1.90116501     -0.120823003      -0.00000000       21.5555058      -1.55504644    
   0.00000000       0.00000000       0.00000000       17.8212204       1.58924568    
  -1.90499997       0.00000000      -0.00000000       17.8212204       1.58924568    
  -1.90404105       6.04420006E-02  -0.00000000       17.8212204       1.58924568    
  -1.90116501      0.120823003      -0.00000000       17.8212204       1.58924568    
  -1.89637399     -0.181081995      -0.00000000       60.9837456      -1.55443931    
  -1.90116501     -0.120823003      -0.00000000       60.9837456      -1.55443931    
   0.00000000       0.00000000       0.00000000       60.9837456      -1.55443931    
  -1.88967395     -0.241159007      -0.00000000       60.9837456      -1.55443931    
  -1.85819399     -0.419692010      -0.00000000       140.731903      -1.55495644    
  -1.87057400     -0.360523999      -0.00000000       140.731903      -1.55495644    
   0.00000000       0.00000000       0.00000000       140.731903      -1.55495644    
  -1.84394205     -0.478437006      -0.00000000       140.731903      -1.55495644    
   0.00000000       0.00000000       0.00000000       100.536324      -1.55449712    
  -1.87057400     -0.360523999      -0.00000000       100.536324      -1.55449712    
  -1.88107097     -0.300992996      -0.00000000       100.536324      -1.55449712    
  -1.88967395     -0.241159007      -0.00000000       100.536324      -1.55449712    
  -1.82783401     -0.536701024      -0.00000000       182.009354      -1.55578136    
  -1.84394205     -0.478437006      -0.00000000       182.009354      -1.55578136    
   0.00000000       0.00000000       0.00000000       182.009354      -1.55578136    
  -1.80988598     -0.594424009      -0.00000000       182.009354      -1.55578136    
  -1.74518704     -0.763773024      -0.00000000       269.583496      -1.55856812    
  -1.76854098     -0.708016992      -0.00000000       269.583496      -1.55856812    
   0.00000000       0.00000000       0.00000000       269.583496      -1.55856812    
  -1.72007501     -0.818759024      -0.00000000       269.583496      -1.55856812    
   0.00000000       0.00000000       0.00000000       224.645935      -1.55694234    
  -1.76854098     -0.708016992      -0.00000000       224.645935      -1.55694234    
  -1.79011405     -0.651548028      -0.00000000       224.645935      -1.55694234    
  -1.80988598     -0.594424009      -0.00000000       224.645935      -1.55694234    
  -1.69323206     -0.872922003      -0.00000000       317.495544      -1.56062984    
  -1.72007501     -0.818759024      -0.00000000       317.495544      -1.56062984    
   0.00000000       0.00000000       0.00000000       317.495544      -1.56062984    
  -1.66468298     -0.926204979      -0.00000000       317.495544      -1.56062984    
  -1.56910396      -1.08024895      -0.00000000       421.532349      -1.56552470    
  -1.60258806      -1.02992105      -0.00000000       421.532349      -1.56552470    
   0.00000000       0.00000000       0.00000000       421.532349      -1.56552470    
  -1.53403997      -1.12949002      -0.00000000       421.532349      -1.56552470    
   0.00000000       0.00000000       0.00000000       368.369415      -1.56301248    
  -1.60258806      -1.02992105      -0.00000000       368.369415      -1.56301248    
  -1.63445795     -0.978555024      -0.00000000       368.369415      -1.56301248    
  -1.66468298     -0.926204979      -0.00000000       368.369415      -1.56301248    
  -1.49743104      -1.17759299      -0.00000000       475.513062      -1.56796801    
  -1.53403997      -1.12949002      -0.00000000       475.513062      -1.56796801    
   0.00000000       0.00000000       0.00000000       475.513062      -1.56796801    
  -1.45931494      -1.22450995      -0.00000000       475.513062      -1.56796801    
  -1.33631003      -1.35768199      -0.00000000       562.351868      -1.57006657    
  -1.37871301      -1.31459999      -0.00000000       562.351868      -1.57006657    
   0.00000000       0.00000000       0.00000000       562.351868      -1.57006657    
  -1.29255998      -1.39939702      -0.00000000       562.351868      -1.57006657    
   0.00000000       0.00000000       0.00000000       526.486206      -1.56992257    
  -1.37871301      -1.31459999      -0.00000000       526.486206      -1.56992257    
  -1.41972899      -1.27019501      -0.00000000       526.486206      -1.56992257    
  -1.45931494      -1.22450995      -0.00000000       526.486206      -1.56992257    
  -1.24750996      -1.43970299      -0.00000000       568.354187      -1.56681120    
  -1.29255998      -1.39939702      -0.00000000       568.354187      -1.56681120    
   0.00000000       0.00000000       0.00000000       568.354187      -1.56681120    
  -1.20120299      -1.47855902      -0.00000000       568.354187      -1.56681120    
  -1.05521798      -1.58604598      -0.00000000       547.382385      -1.55690348    
  -1.10500801      -1.55176699      -0.00000000       547.382385      -1.55690348    
   0.00000000       0.00000000       0.00000000       547.382385      -1.55690348    
  -1.00436401      -1.61872697      -0.00000000       547.382385      -1.55690348    
   0.00000000       0.00000000       0.00000000       559.206909      -1.56192791    
  -1.10500801      -1.55176699      -0.00000000       559.206909      -1.56192791    
  -1.15368605      -1.51592600      -0.00000000       559.206909      -1.56192791    
  -1.20120299      -1.47855902      -0.00000000       559.206909      -1.56192791    
 -0.952499986      -1.64977801      -0.00000000       536.616882      -1.55223155    
  -1.00436401      -1.61872697      -0.00000000       536.616882      -1.55223155    
   0.00000000       0.00000000       0.00000000       536.616882      -1.55223155    
 -0.899676025      -1.67916906      -0.00000000       536.616882      -1.55223155    
 -0.735987008      -1.75708497      -0.00000000       523.081482      -1.54484105    
 -0.791365981      -1.73284900      -0.00000000       523.081482      -1.54484105    
   0.00000000       0.00000000       0.00000000       523.081482      -1.54484105    
 -0.679867983      -1.77955198      -0.00000000       523.081482      -1.54484105    
   0.00000000       0.00000000       0.00000000       528.275818      -1.54815400    
 -0.791365981      -1.73284900      -0.00000000       528.275818      -1.54815400    
 -0.845947027      -1.70686805      -0.00000000       528.275818      -1.54815400    
 -0.899676025      -1.67916906      -0.00000000       528.275818      -1.54815400    
 -0.623063982      -1.80022705      -0.00000000       520.518372      -1.54227030    
 -0.679867983      -1.77955198      -0.00000000       520.518372      -1.54227030    
   0.00000000       0.00000000       0.00000000       520.518372      -1.54227030    
 -0.565632999      -1.81908906      -0.00000000       520.518372      -1.54227030    
 -0.390157014      -1.86461902      -0.00000000       520.530151      -1.53904545    
 -0.449120998      -1.85130095      -0.00000000       520.530151      -1.53904545    
   0.00000000       0.00000000       0.00000000       520.530151      -1.53904545    
 -0.330799997      -1.87605906      -0.00000000       520.530151      -1.53904545    
   0.00000000       0.00000000       0.00000000       519.976562      -1.54038370    
 -0.449120998      -1.85130095      -0.00000000       519.976562      -1.54038370    
 -0.507632971      -1.83611906      -0.00000000       519.976562      -1.54038370    
 -0.565632999      -1.81908906      -0.00000000       519.976562      -1.54038370    
 -0.271109998      -1.88560998      -0.00000000       521.580383      -1.53816605    
 -0.330799997      -1.87605906      -0.00000000       521.580383      -1.53816605    
   0.00000000       0.00000000       0.00000000       521.580383      -1.53816605    
 -0.211146995      -1.89326203      -0.00000000       521.580383      -1.53816605    
  -3.02249994E-02  -1.90476000      -0.00000000       522.391357      -1.53732729    
  -9.06440020E-02  -1.90284204      -0.00000000       522.391357      -1.53732729    
   0.00000000       0.00000000       0.00000000       522.391357      -1.53732729    
   3.02249994E-02  -1.90476000      -0.00000000       522.391357      -1.53732729    
   0.00000000       0.00000000       0.00000000       522.359497      -1.53762066    
  -9.06440020E-02  -1.90284204      -0.00000000       522.359497      -1.53762066    
 -0.150970995      -1.89900804      -0.00000000       522.359497      -1.53762066    
 -0.211146995      -1.89326203      -0.00000000       522.359497      -1.53762066    
   9.06440020E-02  -1.90284204      -0.00000000       521.854004      -1.53731620    
   3.02249994E-02  -1.90476000      -0.00000000       521.854004      -1.53731620    
   0.00000000       0.00000000       0.00000000       521.854004      -1.53731620    
  0.150970995      -1.89900804      -0.00000000       521.854004      -1.53731620    
  0.330799997      -1.87605906      -0.00000000       518.771545      -1.53809559    
  0.271109998      -1.88560998      -0.00000000       518.771545      -1.53809559    
   0.00000000       0.00000000       0.00000000       518.771545      -1.53809559    
  0.390157014      -1.86461902      -0.00000000       518.771545      -1.53809559    
   0.00000000       0.00000000       0.00000000       520.639648      -1.53757131    
  0.271109998      -1.88560998      -0.00000000       520.639648      -1.53757131    
  0.211146995      -1.89326203      -0.00000000       520.639648      -1.53757131    
  0.150970995      -1.89900804      -0.00000000       520.639648      -1.53757131    
  0.449120998      -1.85130095      -0.00000000       516.887390      -1.53899145    
  0.390157014      -1.86461902      -0.00000000       516.887390      -1.53899145    
   0.00000000       0.00000000       0.00000000       516.887390      -1.53899145    
  0.507632971      -1.83611906      -0.00000000       516.887390      -1.53899145    
  0.679867983      -1.77955198      -0.00000000       515.742676      -1.54233313    
  0.623063982      -1.80022705      -0.00000000       515.742676      -1.54233313    
   0.00000000       0.00000000       0.00000000       515.742676      -1.54233313    
  0.735987008      -1.75708497      -0.00000000       515.742676      -1.54233313    
   0.00000000       0.00000000       0.00000000       515.682739      -1.54037595    
  0.623063982      -1.80022705      -0.00000000       515.682739      -1.54037595    
  0.565632999      -1.81908906      -0.00000000       515.682739      -1.54037595    
  0.507632971      -1.83611906      -0.00000000       515.682739      -1.54037595    
  0.791365981      -1.73284900      -0.00000000       517.853882      -1.54497838    
  0.735987008      -1.75708497      -0.00000000       517.853882      -1.54497838    
   0.00000000       0.00000000       0.00000000       517.853882      -1.54497838    
  0.845947027      -1.70686805      -0.00000000       517.853882      -1.54497838    
   1.00436401      -1.61872697      -0.00000000       529.672058      -1.55241561    
  0.952499986      -1.64977801      -0.00000000       529.672058      -1.55241561    
   0.00000000       0.00000000       0.00000000       529.672058      -1.55241561    
   1.05521798      -1.58604598      -0.00000000       529.672058      -1.55241561    
   0.00000000       0.00000000       0.00000000       522.509399      -1.54834902    
  0.952499986      -1.64977801      -0.00000000       522.509399      -1.54834902    
  0.899676025      -1.67916906      -0.00000000       522.509399      -1.54834902    
  0.845947027      -1.70686805      -0.00000000       522.509399      -1.54834902    
   1.10500801      -1.55176699      -0.00000000       538.620300      -1.55702245    
   1.05521798      -1.58604598      -0.00000000       538.620300      -1.55702245    
   0.00000000       0.00000000       0.00000000       538.620300      -1.55702245    
   1.15368605      -1.51592600      -0.00000000       538.620300      -1.55702245    
   1.29255998      -1.39939702      -0.00000000       554.023315      -1.56673265    
   1.24750996      -1.43970299      -0.00000000       554.023315      -1.56673265    
   0.00000000       0.00000000       0.00000000       554.023315      -1.56673265    
   1.33631003      -1.35768199      -0.00000000       554.023315      -1.56673265    
   0.00000000       0.00000000       0.00000000       547.912903      -1.56194758    
   1.24750996      -1.43970299      -0.00000000       547.912903      -1.56194758    
   1.20120299      -1.47855902      -0.00000000       547.912903      -1.56194758    