 VARIABLES="X" "Y" "Z" "abs(p) (Pa)" "angle(p) (rad)"
ZONE N=    802,E =     800, F=FEPOINT, ET=QUADRILATERAL
   1.90499997       0.00000000      -0.00000000       63.8868752       2.08441186    
   1.90404105      -6.04420006E-02  -0.00000000       63.8868752       2.08441186    
   0.00000000       0.00000000       0.00000000       63.8868752       2.08441186    
   1.90404105       6.04420006E-02  -0.00000000       63.8868752       2.08441186    
   1.88967395      0.241159007      -0.00000000       63.8324890       2.08465719    
   1.89637399      0.181081995      -0.00000000       63.8324890       2.08465719    
   0.00000000       0.00000000       0.00000000       63.8324890       2.08465719    
   1.88107097      0.300992996      -0.00000000       63.8324890       2.08465719    
   0.00000000       0.00000000       0.00000000       63.8756828       2.08445835    
   1.89637399      0.181081995      -0.00000000       63.8756828       2.08445835    
   1.90116501      0.120823003      -0.00000000       63.8756828       2.08445835    
   1.90404105       6.04420006E-02  -0.00000000       63.8756828       2.08445835    
   1.87057400      0.360523999      -0.00000000       63.7496758       2.08503723    
   1.88107097      0.300992996      -0.00000000       63.7496758       2.08503723    
   0.00000000       0.00000000       0.00000000       63.7496758       2.08503723    
   1.85819399      0.419692010      -0.00000000       63.7496758       2.08503723    
   1.80988598      0.594424009      -0.00000000       63.4275475       2.08653235    
   1.82783401      0.536701024      -0.00000000       63.4275475       2.08653235    
   0.00000000       0.00000000       0.00000000       63.4275475       2.08653235    
   1.79011405      0.651548028      -0.00000000       63.4275475       2.08653235    
   0.00000000       0.00000000       0.00000000       63.6206970       2.08563614    
   1.82783401      0.536701024      -0.00000000       63.6206970       2.08563614    
   1.84394205      0.478437006      -0.00000000       63.6206970       2.08563614    
   1.85819399      0.419692010      -0.00000000       63.6206970       2.08563614    
   1.76854098      0.708016992      -0.00000000       63.1554527       2.08779216    
   1.79011405      0.651548028      -0.00000000       63.1554527       2.08779216    
   0.00000000       0.00000000       0.00000000       63.1554527       2.08779216    
   1.74518704      0.763773024      -0.00000000       63.1554527       2.08779216    
   1.66468298      0.926204979      -0.00000000       62.3334923       2.09152627    
   1.69323206      0.872922003      -0.00000000       62.3334923       2.09152627    
   0.00000000       0.00000000       0.00000000       62.3334923       2.09152627    
   1.63445795      0.978555024      -0.00000000       62.3334923       2.09152627    
   0.00000000       0.00000000       0.00000000       62.7938652       2.08944893    
   1.69323206      0.872922003      -0.00000000       62.7938652       2.08944893    
   1.72007501      0.818759024      -0.00000000       62.7938652       2.08944893    
   1.74518704      0.763773024      -0.00000000       62.7938652       2.08944893    
   1.60258806       1.02992105      -0.00000000       61.7811966       2.09395790    
   1.63445795      0.978555024      -0.00000000       61.7811966       2.09395790    
   0.00000000       0.00000000       0.00000000       61.7811966       2.09395790    
   1.56910396       1.08024895      -0.00000000       61.7811966       2.09395790    
   1.45931494       1.22450995      -0.00000000       60.5507736       2.09905577    
   1.49743104       1.17759299      -0.00000000       60.5507736       2.09905577    
   0.00000000       0.00000000       0.00000000       60.5507736       2.09905577    
   1.41972899       1.27019501      -0.00000000       60.5507736       2.09905577    
   0.00000000       0.00000000       0.00000000       61.1635857       2.09658527    
   1.49743104       1.17759299      -0.00000000       61.1635857       2.09658527    
   1.53403997       1.12949002      -0.00000000       61.1635857       2.09658527    
   1.56910396       1.08024895      -0.00000000       61.1635857       2.09658527    
   1.37871301       1.31459999      -0.00000000       60.2310371       2.10026288    
   1.41972899       1.27019501      -0.00000000       60.2310371       2.10026288    
   0.00000000       0.00000000       0.00000000       60.2310371       2.10026288    
   1.33631003       1.35768199      -0.00000000       60.2310371       2.10026288    
   1.20120299       1.47855902      -0.00000000       61.2344360       2.09613538    
   1.24750996       1.43970299      -0.00000000       61.2344360       2.09613538    
   0.00000000       0.00000000       0.00000000       61.2344360       2.09613538    
   1.15368605       1.51592600      -0.00000000       61.2344360       2.09613538    
   0.00000000       0.00000000       0.00000000       60.5781937       2.09884286    
   1.24750996       1.43970299      -0.00000000       60.5781937       2.09884286    
   1.29255998       1.39939702      -0.00000000       60.5781937       2.09884286    
   1.33631003       1.35768199      -0.00000000       60.5781937       2.09884286    
   1.10500801       1.55176699      -0.00000000       61.8841133       2.09334683    
   1.15368605       1.51592600      -0.00000000       61.8841133       2.09334683    
   0.00000000       0.00000000       0.00000000       61.8841133       2.09334683    
   1.05521798       1.58604598      -0.00000000       61.8841133       2.09334683    
  0.899676025       1.67916906      -0.00000000       62.9211655       2.08875394    
  0.952499986       1.64977801      -0.00000000       62.9211655       2.08875394    
   0.00000000       0.00000000       0.00000000       62.9211655       2.08875394    
  0.845947027       1.70686805      -0.00000000       62.9211655       2.08875394    
   0.00000000       0.00000000       0.00000000       62.4524345       2.09085059    
  0.952499986       1.64977801      -0.00000000       62.4524345       2.09085059    
   1.00436401       1.61872697      -0.00000000       62.4524345       2.09085059    
   1.05521798       1.58604598      -0.00000000       62.4524345       2.09085059    
  0.791365981       1.73284900      -0.00000000       63.2865181       2.08709812    
  0.845947027       1.70686805      -0.00000000       63.2865181       2.08709812    
   0.00000000       0.00000000       0.00000000       63.2865181       2.08709812    
  0.735987008       1.75708497      -0.00000000       63.2865181       2.08709812    
  0.565632999       1.81908906      -0.00000000       63.7560616       2.08496928    
  0.623063982       1.80022705      -0.00000000       63.7560616       2.08496928    
   0.00000000       0.00000000       0.00000000       63.7560616       2.08496928    
  0.507632971       1.83611906      -0.00000000       63.7560616       2.08496928    
   0.00000000       0.00000000       0.00000000       63.5588646       2.08586097    
  0.623063982       1.80022705      -0.00000000       63.5588646       2.08586097    
  0.679867983       1.77955198      -0.00000000       63.5588646       2.08586097    
  0.735987008       1.75708497      -0.00000000       63.5588646       2.08586097    
  0.449120998       1.85130095      -0.00000000       63.8921547       2.08435655    
  0.507632971       1.83611906      -0.00000000       63.8921547       2.08435655    
   0.00000000       0.00000000       0.00000000       63.8921547       2.08435655    
  0.390157014       1.86461902      -0.00000000       63.8921547       2.08435655    
  0.211146995       1.89326203      -0.00000000       64.0356293       2.08372474    
  0.271109998       1.88560998      -0.00000000       64.0356293       2.08372474    
   0.00000000       0.00000000       0.00000000       64.0356293       2.08372474    
  0.150970995       1.89900804      -0.00000000       64.0356293       2.08372474    
   0.00000000       0.00000000       0.00000000       63.9836693       2.08394909    
  0.271109998       1.88560998      -0.00000000       63.9836693       2.08394909    
  0.330799997       1.87605906      -0.00000000       63.9836693       2.08394909    
  0.390157014       1.86461902      -0.00000000       63.9836693       2.08394909    
   9.06440020E-02   1.90284204      -0.00000000       64.0589600       2.08362746    
  0.150970995       1.89900804      -0.00000000       64.0589600       2.08362746    
   0.00000000       0.00000000       0.00000000       64.0589600       2.08362746    
   3.02249994E-02   1.90476000      -0.00000000       64.0589600       2.08362746    
 -0.150970995       1.89900804      -0.00000000       64.0334549       2.08373523    
  -9.06440020E-02   1.90284204      -0.00000000       64.0334549       2.08373523    
   0.00000000       0.00000000       0.00000000       64.0334549       2.08373523    
 -0.211146995       1.89326203      -0.00000000       64.0334549       2.08373523    
   0.00000000       0.00000000       0.00000000       64.0590363       2.08362818    
  -9.06440020E-02   1.90284204      -0.00000000       64.0590363       2.08362818    
  -3.02249994E-02   1.90476000      -0.00000000       64.0590363       2.08362818    
   3.02249994E-02   1.90476000      -0.00000000       64.0590363       2.08362818    
 -0.271109998       1.88560998      -0.00000000       63.9748840       2.08399630    
 -0.211146995       1.89326203      -0.00000000       63.9748840       2.08399630    
   0.00000000       0.00000000       0.00000000       63.9748840       2.08399630    
 -0.330799997       1.87605906      -0.00000000       63.9748840       2.08399630    
 -0.507632971       1.83611906      -0.00000000       63.7329597       2.08510041    
 -0.449120998       1.85130095      -0.00000000       63.7329597       2.08510041    
   0.00000000       0.00000000       0.00000000       63.7329597       2.08510041    
 -0.565632999       1.81908906      -0.00000000       63.7329597       2.08510041    
   0.00000000       0.00000000       0.00000000       63.8769760       2.08444238    
 -0.449120998       1.85130095      -0.00000000       63.8769760       2.08444238    
 -0.390157014       1.86461902      -0.00000000       63.8769760       2.08444238    
 -0.330799997       1.87605906      -0.00000000       63.8769760       2.08444238    
 -0.623063982       1.80022705      -0.00000000       63.5242882       2.08606100    
 -0.565632999       1.81908906      -0.00000000       63.5242882       2.08606100    
   0.00000000       0.00000000       0.00000000       63.5242882       2.08606100    
 -0.679867983       1.77955198      -0.00000000       63.5242882       2.08606100    
 -0.845947027       1.70686805      -0.00000000       62.8628349       2.08910251    
 -0.791365981       1.73284900      -0.00000000       62.8628349       2.08910251    
   0.00000000       0.00000000       0.00000000       62.8628349       2.08910251    
 -0.899676025       1.67916906      -0.00000000       62.8628349       2.08910251    
   0.00000000       0.00000000       0.00000000       63.2375793       2.08738518    
 -0.791365981       1.73284900      -0.00000000       63.2375793       2.08738518    
 -0.735987008       1.75708497      -0.00000000       63.2375793       2.08738518    
 -0.679867983       1.77955198      -0.00000000       63.2375793       2.08738518    
 -0.952499986       1.64977801      -0.00000000       62.3921318       2.09122300    
 -0.899676025       1.67916906      -0.00000000       62.3921318       2.09122300    
   0.00000000       0.00000000       0.00000000       62.3921318       2.09122300    
  -1.00436401       1.61872697      -0.00000000       62.3921318       2.09122300    
  -1.15368605       1.51592600      -0.00000000       61.2063446       2.09635615    
  -1.10500801       1.55176699      -0.00000000       61.2063446       2.09635615    
   0.00000000       0.00000000       0.00000000       61.2063446       2.09635615    
  -1.20120299       1.47855902      -0.00000000       61.2063446       2.09635615    
   0.00000000       0.00000000       0.00000000       61.8314934       2.09369612    
  -1.10500801       1.55176699      -0.00000000       61.8314934       2.09369612    
  -1.05521798       1.58604598      -0.00000000       61.8314934       2.09369612    
  -1.00436401       1.61872697      -0.00000000       61.8314934       2.09369612    
  -1.24750996       1.43970299      -0.00000000       60.5868988       2.09885502    
  -1.20120299       1.47855902      -0.00000000       60.5868988       2.09885502    
   0.00000000       0.00000000       0.00000000       60.5868988       2.09885502    
  -1.29255998       1.39939702      -0.00000000       60.5868988       2.09885502    
  -1.41972899       1.27019501      -0.00000000       60.6099663       2.09866953    
  -1.37871301       1.31459999      -0.00000000       60.6099663       2.09866953    
   0.00000000       0.00000000       0.00000000       60.6099663       2.09866953    
  -1.45931494       1.22450995      -0.00000000       60.6099663       2.09866953    
   0.00000000       0.00000000       0.00000000       60.2644539       2.10007524    
  -1.37871301       1.31459999      -0.00000000       60.2644539       2.10007524    
  -1.33631003       1.35768199      -0.00000000       60.2644539       2.10007524    
  -1.29255998       1.39939702      -0.00000000       60.2644539       2.10007524    
  -1.49743104       1.17759299      -0.00000000       61.2629128       2.09598184    
  -1.45931494       1.22450995      -0.00000000       61.2629128       2.09598184    
   0.00000000       0.00000000       0.00000000       61.2629128       2.09598184    
  -1.53403997       1.12949002      -0.00000000       61.2629128       2.09598184    
  -1.63445795      0.978555024      -0.00000000       62.4763641       2.09073210    
  -1.60258806       1.02992105      -0.00000000       62.4763641       2.09073210    
   0.00000000       0.00000000       0.00000000       62.4763641       2.09073210    
  -1.66468298      0.926204979      -0.00000000       62.4763641       2.09073210    
   0.00000000       0.00000000       0.00000000       61.9099998       2.09321570    
  -1.60258806       1.02992105      -0.00000000       61.9099998       2.09321570    
  -1.56910396       1.08024895      -0.00000000       61.9099998       2.09321570    
  -1.53403997       1.12949002      -0.00000000       61.9099998       2.09321570    
  -1.69323206      0.872922003      -0.00000000       62.9432335       2.08864641    
  -1.66468298      0.926204979      -0.00000000       62.9432335       2.08864641    
   0.00000000       0.00000000       0.00000000       62.9432335       2.08864641    
  -1.72007501      0.818759024      -0.00000000       62.9432335       2.08864641    
  -1.79011405      0.651548028      -0.00000000       63.5775490       2.08577681    
  -1.76854098      0.708016992      -0.00000000       63.5775490       2.08577681    
   0.00000000       0.00000000       0.00000000       63.5775490       2.08577681    
  -1.80988598      0.594424009      -0.00000000       63.5775490       2.08577681    
   0.00000000       0.00000000       0.00000000       63.3070374       2.08700299    
  -1.76854098      0.708016992      -0.00000000       63.3070374       2.08700299    
  -1.74518704      0.763773024      -0.00000000       63.3070374       2.08700299    
  -1.72007501      0.818759024      -0.00000000       63.3070374       2.08700299    
  -1.82783401      0.536701024      -0.00000000       63.7730598       2.08489203    
  -1.80988598      0.594424009      -0.00000000       63.7730598       2.08489203    
   0.00000000       0.00000000       0.00000000       63.7730598       2.08489203    
  -1.84394205      0.478437006      -0.00000000       63.7730598       2.08489203    
  -1.88107097      0.300992996      -0.00000000       63.9982643       2.08388400    
  -1.87057400      0.360523999      -0.00000000       63.9982643       2.08388400    
   0.00000000       0.00000000       0.00000000       63.9982643       2.08388400    
  -1.88967395      0.241159007      -0.00000000       63.9982643       2.08388400    
   0.00000000       0.00000000       0.00000000       63.9077644       2.08428407    
  -1.87057400      0.360523999      -0.00000000       63.9077644       2.08428407    
  -1.85819399      0.419692010      -0.00000000       63.9077644       2.08428407    
  -1.84394205      0.478437006      -0.00000000       63.9077644       2.08428407    
  -1.89637399      0.181081995      -0.00000000       64.0495300       2.08366585    
  -1.88967395      0.241159007      -0.00000000       64.0495300       2.08366585    
   0.00000000       0.00000000       0.00000000       64.0495300       2.08366585    
  -1.90116501      0.120823003      -0.00000000       64.0495300       2.08366585    
  -1.90404105      -6.04420006E-02  -0.00000000       64.0719986       2.08357215    
  -1.90499997       0.00000000      -0.00000000       64.0719986       2.08357215    
   0.00000000       0.00000000       0.00000000       64.0719986       2.08357215    
  -1.90116501     -0.120823003      -0.00000000       64.0719986       2.08357215    
   0.00000000       0.00000000       0.00000000       64.0722809       2.08357191    
  -1.90499997       0.00000000      -0.00000000       64.0722809       2.08357191    
  -1.90404105       6.04420006E-02  -0.00000000       64.0722809       2.08357191    
  -1.90116501      0.120823003      -0.00000000       64.0722809       2.08357191    
  -1.89637399     -0.181081995      -0.00000000       64.0462265       2.08368278    
  -1.90116501     -0.120823003      -0.00000000       64.0462265       2.08368278    
   0.00000000       0.00000000       0.00000000       64.0462265       2.08368278    
  -1.88967395     -0.241159007      -0.00000000       64.0462265       2.08368278    
  -1.85819399     -0.419692010      -0.00000000       63.8882408       2.08439493    
  -1.87057400     -0.360523999      -0.00000000       63.8882408       2.08439493    
   0.00000000       0.00000000       0.00000000       63.8882408       2.08439493    
  -1.84394205     -0.478437006      -0.00000000       63.8882408       2.08439493    
   0.00000000       0.00000000       0.00000000       63.9869690       2.08394933    
  -1.87057400     -0.360523999      -0.00000000       63.9869690       2.08394933    
  -1.88107097     -0.300992996      -0.00000000       63.9869690       2.08394933    
  -1.88967395     -0.241159007      -0.00000000       63.9869690       2.08394933    
  -1.82783401     -0.536701024      -0.00000000       63.7432671       2.08506131    
  -1.84394205     -0.478437006      -0.00000000       63.7432671       2.08506131    
   0.00000000       0.00000000       0.00000000       63.7432671       2.08506131    
  -1.80988598     -0.594424009      -0.00000000       63.7432671       2.08506131    
  -1.74518704     -0.763773024      -0.00000000       63.2452240       2.08735752    
  -1.76854098     -0.708016992      -0.00000000       63.2452240       2.08735752    
   0.00000000       0.00000000       0.00000000       63.2452240       2.08735752    
  -1.72007501     -0.818759024      -0.00000000       63.2452240       2.08735752    
   0.00000000       0.00000000       0.00000000       63.5331802       2.08602643    
  -1.76854098     -0.708016992      -0.00000000       63.5331802       2.08602643    
  -1.79011405     -0.651548028      -0.00000000       63.5331802       2.08602643    
  -1.80988598     -0.594424009      -0.00000000       63.5331802       2.08602643    
  -1.69323206     -0.872922003      -0.00000000       62.8689346       2.08908129    
  -1.72007501     -0.818759024      -0.00000000       62.8689346       2.08908129    
   0.00000000       0.00000000       0.00000000       62.8689346       2.08908129    
  -1.66468298     -0.926204979      -0.00000000       62.8689346       2.08908129    
  -1.56910396      -1.08024895      -0.00000000       61.8336525       2.09368944    
  -1.60258806      -1.02992105      -0.00000000       61.8336525       2.09368944    
   0.00000000       0.00000000       0.00000000       61.8336525       2.09368944    
  -1.53403997      -1.12949002      -0.00000000       61.8336525       2.09368944    
   0.00000000       0.00000000       0.00000000       62.3963776       2.09120893    
  -1.60258806      -1.02992105      -0.00000000       62.3963776       2.09120893    
  -1.63445795     -0.978555024      -0.00000000       62.3963776       2.09120893    
  -1.66468298     -0.926204979      -0.00000000       62.3963776       2.09120893    
  -1.49743104      -1.17759299      -0.00000000       61.2060204       2.09635758    
  -1.53403997      -1.12949002      -0.00000000       61.2060204       2.09635758    
   0.00000000       0.00000000       0.00000000       61.2060204       2.09635758    
  -1.45931494      -1.22450995      -0.00000000       61.2060204       2.09635758    
  -1.33631003      -1.35768199      -0.00000000       60.2625198       2.10008621    
  -1.37871301      -1.31459999      -0.00000000       60.2625198       2.10008621    
   0.00000000       0.00000000       0.00000000       60.2625198       2.10008621    
  -1.29255998      -1.39939702      -0.00000000       60.2625198       2.10008621    
   0.00000000       0.00000000       0.00000000       60.5847893       2.09886599    
  -1.37871301      -1.31459999      -0.00000000       60.5847893       2.09886599    
  -1.41972899      -1.27019501      -0.00000000       60.5847893       2.09886599    
  -1.45931494      -1.22450995      -0.00000000       60.5847893       2.09886599    
  -1.24750996      -1.43970299      -0.00000000       60.6082458       2.09868288    
  -1.29255998      -1.39939702      -0.00000000       60.6082458       2.09868288    
   0.00000000       0.00000000       0.00000000       60.6082458       2.09868288    
  -1.20120299      -1.47855902      -0.00000000       60.6082458       2.09868288    
  -1.05521798      -1.58604598      -0.00000000       61.9042969       2.09324360    
  -1.10500801      -1.55176699      -0.00000000       61.9042969       2.09324360    
   0.00000000       0.00000000       0.00000000       61.9042969       2.09324360    
  -1.00436401      -1.61872697      -0.00000000       61.9042969       2.09324360    
   0.00000000       0.00000000       0.00000000       61.2593002       2.09600139    
  -1.10500801      -1.55176699      -0.00000000       61.2593002       2.09600139    
  -1.15368605      -1.51592600      -0.00000000       61.2593002       2.09600139    
  -1.20120299      -1.47855902      -0.00000000       61.2593002       2.09600139    
 -0.952499986      -1.64977801      -0.00000000       62.4687805       2.09076595    
  -1.00436401      -1.61872697      -0.00000000       62.4687805       2.09076595    
   0.00000000       0.00000000       0.00000000       62.4687805       2.09076595    
 -0.899676025      -1.67916906      -0.00000000       62.4687805       2.09076595    
 -0.735987008      -1.75708497      -0.00000000       63.2965889       2.08704829    
 -0.791365981      -1.73284900      -0.00000000       63.2965889       2.08704829    
   0.00000000       0.00000000       0.00000000       63.2965889       2.08704829    
 -0.679867983      -1.77955198      -0.00000000       63.2965889       2.08704829    
   0.00000000       0.00000000       0.00000000       62.9340668       2.08868623    
 -0.791365981      -1.73284900      -0.00000000       62.9340668       2.08868623    
 -0.845947027      -1.70686805      -0.00000000       62.9340668       2.08868623    
 -0.899676025      -1.67916906      -0.00000000       62.9340668       2.08868623    
 -0.623063982      -1.80022705      -0.00000000       63.5657539       2.08582616    
 -0.679867983      -1.77955198      -0.00000000       63.5657539       2.08582616    
   0.00000000       0.00000000       0.00000000       63.5657539       2.08582616    
 -0.565632999      -1.81908906      -0.00000000       63.5657539       2.08582616    
 -0.390157014      -1.86461902      -0.00000000       63.8940315       2.08434176    
 -0.449120998      -1.85130095      -0.00000000       63.8940315       2.08434176    
   0.00000000       0.00000000       0.00000000       63.8940315       2.08434176    
 -0.330799997      -1.87605906      -0.00000000       63.8940315       2.08434176    
   0.00000000       0.00000000       0.00000000       63.7602043       2.08494616    
 -0.449120998      -1.85130095      -0.00000000       63.7602043       2.08494616    
 -0.507632971      -1.83611906      -0.00000000       63.7602043       2.08494616    
 -0.565632999      -1.81908906      -0.00000000       63.7602043       2.08494616    
 -0.271109998      -1.88560998      -0.00000000       63.9836502       2.08394504    
 -0.330799997      -1.87605906      -0.00000000       63.9836502       2.08394504    
   0.00000000       0.00000000       0.00000000       63.9836502       2.08394504    
 -0.211146995      -1.89326203      -0.00000000       63.9836502       2.08394504    
  -3.02249994E-02  -1.90476000      -0.00000000       64.0570984       2.08363485    
  -9.06440020E-02  -1.90284204      -0.00000000       64.0570984       2.08363485    
   0.00000000       0.00000000       0.00000000       64.0570984       2.08363485    
   3.02249994E-02  -1.90476000      -0.00000000       64.0570984       2.08363485    
   0.00000000       0.00000000       0.00000000       64.0342712       2.08372903    
  -9.06440020E-02  -1.90284204      -0.00000000       64.0342712       2.08372903    
 -0.150970995      -1.89900804      -0.00000000       64.0342712       2.08372903    
 -0.211146995      -1.89326203      -0.00000000       64.0342712       2.08372903    
   9.06440020E-02  -1.90284204      -0.00000000       64.0566177       2.08363962    
   3.02249994E-02  -1.90476000      -0.00000000       64.0566177       2.08363962    
   0.00000000       0.00000000       0.00000000       64.0566177       2.08363962    
  0.150970995      -1.89900804      -0.00000000       64.0566177       2.08363962    
  0.330799997      -1.87605906      -0.00000000       63.9699097       2.08402395    
  0.271109998      -1.88560998      -0.00000000       63.9699097       2.08402395    
   0.00000000       0.00000000       0.00000000       63.9699097       2.08402395    
  0.390157014      -1.86461902      -0.00000000       63.9699097       2.08402395    
   0.00000000       0.00000000       0.00000000       64.0299225       2.08375382    
  0.271109998      -1.88560998      -0.00000000       64.0299225       2.08375382    
  0.211146995      -1.89326203      -0.00000000       64.0299225       2.08375382    
  0.150970995      -1.89900804      -0.00000000       64.0299225       2.08375382    
  0.449120998      -1.85130095      -0.00000000       63.8697739       2.08447671    
  0.390157014      -1.86461902      -0.00000000       63.8697739       2.08447671    
   0.00000000       0.00000000       0.00000000       63.8697739       2.08447671    
  0.507632971      -1.83611906      -0.00000000       63.8697739       2.08447671    
  0.679867983      -1.77955198      -0.00000000       63.5113754       2.08612704    
  0.623063982      -1.80022705      -0.00000000       63.5113754       2.08612704    
   0.00000000       0.00000000       0.00000000       63.5113754       2.08612704    
  0.735987008      -1.75708497      -0.00000000       63.5113754       2.08612704    
   0.00000000       0.00000000       0.00000000       63.7233543       2.08515072    
  0.623063982      -1.80022705      -0.00000000       63.7233543       2.08515072    
  0.565632999      -1.81908906      -0.00000000       63.7233543       2.08515072    
  0.507632971      -1.83611906      -0.00000000       63.7233543       2.08515072    
  0.791365981      -1.73284900      -0.00000000       63.2213478       2.08746839    
  0.735987008      -1.75708497      -0.00000000       63.2213478       2.08746839    
   0.00000000       0.00000000       0.00000000       63.2213478       2.08746839    
  0.845947027      -1.70686805      -0.00000000       63.2213478       2.08746839    
   1.00436401      -1.61872697      -0.00000000       62.3682899       2.09134793    
  0.952499986      -1.64977801      -0.00000000       62.3682899       2.09134793    
   0.00000000       0.00000000       0.00000000       62.3682899       2.09134793    
   1.05521798      -1.58604598      -0.00000000       62.3682899       2.09134793    
   0.00000000       0.00000000       0.00000000       62.8430290       2.08920598    
  0.952499986      -1.64977801      -0.00000000       62.8430290       2.08920598    
  0.899676025      -1.67916906      -0.00000000       62.8430290       2.08920598    
  0.845947027      -1.70686805      -0.00000000       62.8430290       2.08920598    
   1.10500801      -1.55176699      -0.00000000       61.8028870       2.09384418    
   1.05521798      -1.58604598      -0.00000000       61.8028870       2.09384418    
   0.00000000       0.00000000       0.00000000       61.8028870       2.09384418    
   1.15368605      -1.51592600      -0.00000000       61.8028870       2.09384418    
   1.29255998      -1.39939702      -0.00000000       60.5469246       2.09906840    
   1.24750996      -1.43970299      -0.00000000       60.5469246       2.09906840    
   0.00000000       0.00000000       0.00000000       60.5469246       2.09906840    
   1.33631003      -1.35768199      -0.00000000       60.5469246       2.09906840    
   0.00000000       0.00000000       0.00000000       61.1715088       2.09653854    
   1.24750996      -1.43970299      -0.00000000       61.1715088       2.09653854    
   1.20120299      -1.47855902      -0.00000000       61.1715088       2.09653854    