 VARIABLES="X" "Y" "Z" "abs(p) (Pa)" "angle(p) (rad)"
ZONE N=    802,E =     800, F=FEPOINT, ET=QUADRILATERAL
   1.90499997       0.00000000      -0.00000000       2.36413860       1.90258062    
   1.90404105      -6.04420006E-02  -0.00000000       2.36413860       1.90258062    
   0.00000000       0.00000000       0.00000000       2.36413860       1.90258062    
   1.90404105       6.04420006E-02  -0.00000000       2.36413860       1.90258062    
   1.88967395      0.241159007      -0.00000000       2.37786984       1.90043092    
   1.89637399      0.181081995      -0.00000000       2.37786984       1.90043092    
   0.00000000       0.00000000       0.00000000       2.37786984       1.90043092    
   1.88107097      0.300992996      -0.00000000       2.37786984       1.90043092    
   0.00000000       0.00000000       0.00000000       2.36747122       1.90205550    
   1.89637399      0.181081995      -0.00000000       2.36747122       1.90205550    
   1.90116501      0.120823003      -0.00000000       2.36747122       1.90205550    
   1.90404105       6.04420006E-02  -0.00000000       2.36747122       1.90205550    
   1.87057400      0.360523999      -0.00000000       2.39904499       1.89718688    
   1.88107097      0.300992996      -0.00000000       2.39904499       1.89718688    
   0.00000000       0.00000000       0.00000000       2.39904499       1.89718688    
   1.85819399      0.419692010      -0.00000000       2.39904499       1.89718688    
   1.80988598      0.594424009      -0.00000000       2.48306799       1.88489866    
   1.82783401      0.536701024      -0.00000000       2.48306799       1.88489866    
   0.00000000       0.00000000       0.00000000       2.48306799       1.88489866    
   1.79011405      0.651548028      -0.00000000       2.48306799       1.88489866    
   0.00000000       0.00000000       0.00000000       2.43286657       1.89213276    
   1.82783401      0.536701024      -0.00000000       2.43286657       1.89213276    
   1.84394205      0.478437006      -0.00000000       2.43286657       1.89213276    
   1.85819399      0.419692010      -0.00000000       2.43286657       1.89213276    
   1.76854098      0.708016992      -0.00000000       2.55536723       1.87500107    
   1.79011405      0.651548028      -0.00000000       2.55536723       1.87500107    
   0.00000000       0.00000000       0.00000000       2.55536723       1.87500107    
   1.74518704      0.763773024      -0.00000000       2.55536723       1.87500107    
   1.66468298      0.926204979      -0.00000000       2.76772118       1.84893394    
   1.69323206      0.872922003      -0.00000000       2.76772118       1.84893394    
   0.00000000       0.00000000       0.00000000       2.76772118       1.84893394    
   1.63445795      0.978555024      -0.00000000       2.76772118       1.84893394    
   0.00000000       0.00000000       0.00000000       2.65080118       1.86278045    
   1.69323206      0.872922003      -0.00000000       2.65080118       1.86278045    
   1.72007501      0.818759024      -0.00000000       2.65080118       1.86278045    
   1.74518704      0.763773024      -0.00000000       2.65080118       1.86278045    
   1.60258806       1.02992105      -0.00000000       2.90014434       1.83454120    
   1.63445795      0.978555024      -0.00000000       2.90014434       1.83454120    
   0.00000000       0.00000000       0.00000000       2.90014434       1.83454120    
   1.56910396       1.08024895      -0.00000000       2.90014434       1.83454120    
   1.45931494       1.22450995      -0.00000000       3.16413760       1.80903518    
   1.49743104       1.17759299      -0.00000000       3.16413760       1.80903518    
   0.00000000       0.00000000       0.00000000       3.16413760       1.80903518    
   1.41972899       1.27019501      -0.00000000       3.16413760       1.80903518    
   0.00000000       0.00000000       0.00000000       3.03903818       1.82066834    
   1.49743104       1.17759299      -0.00000000       3.03903818       1.82066834    
   1.53403997       1.12949002      -0.00000000       3.03903818       1.82066834    
   1.56910396       1.08024895      -0.00000000       3.03903818       1.82066834    
   1.37871301       1.31459999      -0.00000000       3.22167993       1.80385482    
   1.41972899       1.27019501      -0.00000000       3.22167993       1.80385482    
   0.00000000       0.00000000       0.00000000       3.22167993       1.80385482    
   1.33631003       1.35768199      -0.00000000       3.22167993       1.80385482    
   1.20120299       1.47855902      -0.00000000       3.00940657       1.82326245    
   1.24750996       1.43970299      -0.00000000       3.00940657       1.82326245    
   0.00000000       0.00000000       0.00000000       3.00940657       1.82326245    
   1.15368605       1.51592600      -0.00000000       3.00940657       1.82326245    
   0.00000000       0.00000000       0.00000000       3.14893889       1.81022000    
   1.24750996       1.43970299      -0.00000000       3.14893889       1.81022000    
   1.29255998       1.39939702      -0.00000000       3.14893889       1.81022000    
   1.33631003       1.35768199      -0.00000000       3.14893889       1.81022000    
   1.10500801       1.55176699      -0.00000000       2.86082196       1.83839691    
   1.15368605       1.51592600      -0.00000000       2.86082196       1.83839691    
   0.00000000       0.00000000       0.00000000       2.86082196       1.83839691    
   1.05521798       1.58604598      -0.00000000       2.86082196       1.83839691    
  0.899676025       1.67916906      -0.00000000       2.60526633       1.86825788    
  0.952499986       1.64977801      -0.00000000       2.60526633       1.86825788    
   0.00000000       0.00000000       0.00000000       2.60526633       1.86825788    
  0.845947027       1.70686805      -0.00000000       2.60526633       1.86825788    
   0.00000000       0.00000000       0.00000000       2.72342539       1.85377192    
  0.952499986       1.64977801      -0.00000000       2.72342539       1.85377192    
   1.00436401       1.61872697      -0.00000000       2.72342539       1.85377192    
   1.05521798       1.58604598      -0.00000000       2.72342539       1.85377192    
  0.791365981       1.73284900      -0.00000000       2.51163387       1.88070536    
  0.845947027       1.70686805      -0.00000000       2.51163387       1.88070536    
   0.00000000       0.00000000       0.00000000       2.51163387       1.88070536    
  0.735987008       1.75708497      -0.00000000       2.51163387       1.88070536    
  0.565632999       1.81908906      -0.00000000       2.39244628       1.89802659    
  0.623063982       1.80022705      -0.00000000       2.39244628       1.89802659    
   0.00000000       0.00000000       0.00000000       2.39244628       1.89802659    
  0.507632971       1.83611906      -0.00000000       2.39244628       1.89802659    
   0.00000000       0.00000000       0.00000000       2.44169474       1.89064991    
  0.623063982       1.80022705      -0.00000000       2.44169474       1.89064991    
  0.679867983       1.77955198      -0.00000000       2.44169474       1.89064991    
  0.735987008       1.75708497      -0.00000000       2.44169474       1.89064991    
  0.449120998       1.85130095      -0.00000000       2.35869169       1.90327692    
  0.507632971       1.83611906      -0.00000000       2.35869169       1.90327692    
   0.00000000       0.00000000       0.00000000       2.35869169       1.90327692    
  0.390157014       1.86461902      -0.00000000       2.35869169       1.90327692    
  0.211146995       1.89326203      -0.00000000       2.32589817       1.90855873    
  0.271109998       1.88560998      -0.00000000       2.32589817       1.90855873    
   0.00000000       0.00000000       0.00000000       2.32589817       1.90855873    
  0.150970995       1.89900804      -0.00000000       2.32589817       1.90855873    
   0.00000000       0.00000000       0.00000000       2.33777142       1.90662289    
  0.271109998       1.88560998      -0.00000000       2.33777142       1.90662289    
  0.330799997       1.87605906      -0.00000000       2.33777142       1.90662289    
  0.390157014       1.86461902      -0.00000000       2.33777142       1.90662289    
   9.06440020E-02   1.90284204      -0.00000000       2.32042813       1.90945935    
  0.150970995       1.89900804      -0.00000000       2.32042813       1.90945935    
   0.00000000       0.00000000       0.00000000       2.32042813       1.90945935    
   3.02249994E-02   1.90476000      -0.00000000       2.32042813       1.90945935    
 -0.150970995       1.89900804      -0.00000000       2.32710338       1.90835035    
  -9.06440020E-02   1.90284204      -0.00000000       2.32710338       1.90835035    
   0.00000000       0.00000000       0.00000000       2.32710338       1.90835035    
 -0.211146995       1.89326203      -0.00000000       2.32710338       1.90835035    
   0.00000000       0.00000000       0.00000000       2.32073069       1.90940535    
  -9.06440020E-02   1.90284204      -0.00000000       2.32073069       1.90940535    
  -3.02249994E-02   1.90476000      -0.00000000       2.32073069       1.90940535    
   3.02249994E-02   1.90476000      -0.00000000       2.32073069       1.90940535    
 -0.271109998       1.88560998      -0.00000000       2.34020233       1.90621817    
 -0.211146995       1.89326203      -0.00000000       2.34020233       1.90621817    
   0.00000000       0.00000000       0.00000000       2.34020233       1.90621817    
 -0.330799997       1.87605906      -0.00000000       2.34020233       1.90621817    
 -0.507632971       1.83611906      -0.00000000       2.40137887       1.89667141    
 -0.449120998       1.85130095      -0.00000000       2.40137887       1.89667141    
   0.00000000       0.00000000       0.00000000       2.40137887       1.89667141    
 -0.565632999       1.81908906      -0.00000000       2.40137887       1.89667141    
   0.00000000       0.00000000       0.00000000       2.36419821       1.90240419    
 -0.449120998       1.85130095      -0.00000000       2.36419821       1.90240419    
 -0.390157014       1.86461902      -0.00000000       2.36419821       1.90240419    
 -0.330799997       1.87605906      -0.00000000       2.36419821       1.90240419    
 -0.623063982       1.80022705      -0.00000000       2.45548892       1.88867164    
 -0.565632999       1.81908906      -0.00000000       2.45548892       1.88867164    
   0.00000000       0.00000000       0.00000000       2.45548892       1.88867164    
 -0.679867983       1.77955198      -0.00000000       2.45548892       1.88867164    
 -0.845947027       1.70686805      -0.00000000       2.62982464       1.86524212    
 -0.791365981       1.73284900      -0.00000000       2.62982464       1.86524212    
   0.00000000       0.00000000       0.00000000       2.62982464       1.86524212    
 -0.899676025       1.67916906      -0.00000000       2.62982464       1.86524212    
   0.00000000       0.00000000       0.00000000       2.53149676       1.87804818    
 -0.791365981       1.73284900      -0.00000000       2.53149676       1.87804818    
 -0.735987008       1.75708497      -0.00000000       2.53149676       1.87804818    
 -0.679867983       1.77955198      -0.00000000       2.53149676       1.87804818    
 -0.952499986       1.64977801      -0.00000000       2.74894214       1.85093284    
 -0.899676025       1.67916906      -0.00000000       2.74894214       1.85093284    
   0.00000000       0.00000000       0.00000000       2.74894214       1.85093284    
  -1.00436401       1.61872697      -0.00000000       2.74894214       1.85093284    
  -1.15368605       1.51592600      -0.00000000       3.02349997       1.82201183    
  -1.10500801       1.55176699      -0.00000000       3.02349997       1.82201183    
   0.00000000       0.00000000       0.00000000       3.02349997       1.82201183    
  -1.20120299       1.47855902      -0.00000000       3.02349997       1.82201183    
   0.00000000       0.00000000       0.00000000       2.88322473       1.83616221    
  -1.10500801       1.55176699      -0.00000000       2.88322473       1.83616221    
  -1.05521798       1.58604598      -0.00000000       2.88322473       1.83616221    
  -1.00436401       1.61872697      -0.00000000       2.88322473       1.83616221    
  -1.24750996       1.43970299      -0.00000000       3.14985228       1.81016874    
  -1.20120299       1.47855902      -0.00000000       3.14985228       1.81016874    
   0.00000000       0.00000000       0.00000000       3.14985228       1.81016874    
  -1.29255998       1.39939702      -0.00000000       3.14985228       1.81016874    
  -1.41972899       1.27019501      -0.00000000       3.13670921       1.81119943    
  -1.37871301       1.31459999      -0.00000000       3.13670921       1.81119943    
   0.00000000       0.00000000       0.00000000       3.13670921       1.81119943    
  -1.45931494       1.22450995      -0.00000000       3.13670921       1.81119943    
   0.00000000       0.00000000       0.00000000       3.20852685       1.80486107    
  -1.37871301       1.31459999      -0.00000000       3.20852685       1.80486107    
  -1.33631003       1.35768199      -0.00000000       3.20852685       1.80486107    
  -1.29255998       1.39939702      -0.00000000       3.20852685       1.80486107    
  -1.49743104       1.17759299      -0.00000000       2.99830270       1.82422268    
  -1.45931494       1.22450995      -0.00000000       2.99830270       1.82422268    
   0.00000000       0.00000000       0.00000000       2.99830270       1.82422268    
  -1.53403997       1.12949002      -0.00000000       2.99830270       1.82422268    
  -1.63445795      0.978555024      -0.00000000       2.71441913       1.85470116    
  -1.60258806       1.02992105      -0.00000000       2.71441913       1.85470116    
   0.00000000       0.00000000       0.00000000       2.71441913       1.85470116    
  -1.66468298      0.926204979      -0.00000000       2.71441913       1.85470116    
   0.00000000       0.00000000       0.00000000       2.85079885       1.83934498    
  -1.60258806       1.02992105      -0.00000000       2.85079885       1.83934498    
  -1.56910396       1.08024895      -0.00000000       2.85079885       1.83934498    
  -1.53403997       1.12949002      -0.00000000       2.85079885       1.83934498    
  -1.69323206      0.872922003      -0.00000000       2.59720469       1.86915410    
  -1.66468298      0.926204979      -0.00000000       2.59720469       1.86915410    
   0.00000000       0.00000000       0.00000000       2.59720469       1.86915410    
  -1.72007501      0.818759024      -0.00000000       2.59720469       1.86915410    
  -1.79011405      0.651548028      -0.00000000       2.43509603       1.89146209    
  -1.76854098      0.708016992      -0.00000000       2.43509603       1.89146209    
   0.00000000       0.00000000       0.00000000       2.43509603       1.89146209    
  -1.80988598      0.594424009      -0.00000000       2.43509603       1.89146209    
   0.00000000       0.00000000       0.00000000       2.50435781       1.88156188    
  -1.76854098      0.708016992      -0.00000000       2.50435781       1.88156188    
  -1.74518704      0.763773024      -0.00000000       2.50435781       1.88156188    
  -1.72007501      0.818759024      -0.00000000       2.50435781       1.88156188    
  -1.82783401      0.536701024      -0.00000000       2.38639641       1.89879107    
  -1.80988598      0.594424009      -0.00000000       2.38639641       1.89879107    
   0.00000000       0.00000000       0.00000000       2.38639641       1.89879107    
  -1.84394205      0.478437006      -0.00000000       2.38639641       1.89879107    
  -1.88107097      0.300992996      -0.00000000       2.33274031       1.90727520    
  -1.87057400      0.360523999      -0.00000000       2.33274031       1.90727520    
   0.00000000       0.00000000       0.00000000       2.33274031       1.90727520    
  -1.88967395      0.241159007      -0.00000000       2.33274031       1.90727520    
   0.00000000       0.00000000       0.00000000       2.35311675       1.90399468    
  -1.87057400      0.360523999      -0.00000000       2.35311675       1.90399468    
  -1.85819399      0.419692010      -0.00000000       2.35311675       1.90399468    
  -1.84394205      0.478437006      -0.00000000       2.35311675       1.90399468    
  -1.89637399      0.181081995      -0.00000000       2.32122493       1.90916729    
  -1.88967395      0.241159007      -0.00000000       2.32122493       1.90916729    
   0.00000000       0.00000000       0.00000000       2.32122493       1.90916729    
  -1.90116501      0.120823003      -0.00000000       2.32122493       1.90916729    
  -1.90404105      -6.04420006E-02  -0.00000000       2.31649852       1.90995932    
  -1.90499997       0.00000000      -0.00000000       2.31649852       1.90995932    
   0.00000000       0.00000000       0.00000000       2.31649852       1.90995932    
  -1.90116501     -0.120823003      -0.00000000       2.31649852       1.90995932    
   0.00000000       0.00000000       0.00000000       2.31599164       1.91003823    
  -1.90499997       0.00000000      -0.00000000       2.31599164       1.91003823    
  -1.90404105       6.04420006E-02  -0.00000000       2.31599164       1.91003823    
  -1.90116501      0.120823003      -0.00000000       2.31599164       1.91003823    
  -1.89637399     -0.181081995      -0.00000000       2.32309461       1.90887547    
  -1.90116501     -0.120823003      -0.00000000       2.32309461       1.90887547    
   0.00000000       0.00000000       0.00000000       2.32309461       1.90887547    
  -1.88967395     -0.241159007      -0.00000000       2.32309461       1.90887547    
  -1.85819399     -0.419692010      -0.00000000       2.36090446       1.90281284    
  -1.87057400     -0.360523999      -0.00000000       2.36090446       1.90281284    
   0.00000000       0.00000000       0.00000000       2.36090446       1.90281284    
  -1.84394205     -0.478437006      -0.00000000       2.36090446       1.90281284    
   0.00000000       0.00000000       0.00000000       2.33649826       1.90669239    
  -1.87057400     -0.360523999      -0.00000000       2.33649826       1.90669239    
  -1.88107097     -0.300992996      -0.00000000       2.33649826       1.90669239    
  -1.88967395     -0.241159007      -0.00000000       2.33649826       1.90669239    
  -1.82783401     -0.536701024      -0.00000000       2.39853978       1.89700460    
  -1.84394205     -0.478437006      -0.00000000       2.39853978       1.89700460    
   0.00000000       0.00000000       0.00000000       2.39853978       1.89700460    
  -1.80988598     -0.594424009      -0.00000000       2.39853978       1.89700460    
  -1.74518704     -0.763773024      -0.00000000       2.52969384       1.87822342    
  -1.76854098     -0.708016992      -0.00000000       2.52969384       1.87822342    
   0.00000000       0.00000000       0.00000000       2.52969384       1.87822342    
  -1.72007501     -0.818759024      -0.00000000       2.52969384       1.87822342    
   0.00000000       0.00000000       0.00000000       2.45314240       1.88892639    
  -1.76854098     -0.708016992      -0.00000000       2.45314240       1.88892639    
  -1.79011405     -0.651548028      -0.00000000       2.45314240       1.88892639    
  -1.80988598     -0.594424009      -0.00000000       2.45314240       1.88892639    
  -1.69323206     -0.872922003      -0.00000000       2.62856293       1.86534429    
  -1.72007501     -0.818759024      -0.00000000       2.62856293       1.86534429    
   0.00000000       0.00000000       0.00000000       2.62856293       1.86534429    
  -1.66468298     -0.926204979      -0.00000000       2.62856293       1.86534429    
  -1.56910396      -1.08024895      -0.00000000       2.88323379       1.83613324    
  -1.60258806      -1.02992105      -0.00000000       2.88323379       1.83613324    
   0.00000000       0.00000000       0.00000000       2.88323379       1.83613324    
  -1.53403997      -1.12949002      -0.00000000       2.88323379       1.83613324    
   0.00000000       0.00000000       0.00000000       2.74830055       1.85096478    
  -1.60258806      -1.02992105      -0.00000000       2.74830055       1.85096478    
  -1.63445795     -0.978555024      -0.00000000       2.74830055       1.85096478    
  -1.66468298     -0.926204979      -0.00000000       2.74830055       1.85096478    
  -1.49743104      -1.17759299      -0.00000000       3.02420998       1.82192945    
  -1.53403997      -1.12949002      -0.00000000       3.02420998       1.82192945    
   0.00000000       0.00000000       0.00000000       3.02420998       1.82192945    
  -1.45931494      -1.22450995      -0.00000000       3.02420998       1.82192945    
  -1.33631003      -1.35768199      -0.00000000       3.21004844       1.80474150    
  -1.37871301      -1.31459999      -0.00000000       3.21004844       1.80474150    
   0.00000000       0.00000000       0.00000000       3.21004844       1.80474150    
  -1.29255998      -1.39939702      -0.00000000       3.21004844       1.80474150    
   0.00000000       0.00000000       0.00000000       3.15119362       1.81004858    
  -1.37871301      -1.31459999      -0.00000000       3.15119362       1.81004858    
  -1.41972899      -1.27019501      -0.00000000       3.15119362       1.81004858    
  -1.45931494      -1.22450995      -0.00000000       3.15119362       1.81004858    
  -1.24750996      -1.43970299      -0.00000000       3.13822436       1.81108224    
  -1.29255998      -1.39939702      -0.00000000       3.13822436       1.81108224    
   0.00000000       0.00000000       0.00000000       3.13822436       1.81108224    
  -1.20120299      -1.47855902      -0.00000000       3.13822436       1.81108224    
  -1.05521798      -1.58604598      -0.00000000       2.85285807       1.83915985    
  -1.10500801      -1.55176699      -0.00000000       2.85285807       1.83915985    
   0.00000000       0.00000000       0.00000000       2.85285807       1.83915985    
  -1.00436401      -1.61872697      -0.00000000       2.85285807       1.83915985    
   0.00000000       0.00000000       0.00000000       3.00007701       1.82407856    
  -1.10500801      -1.55176699      -0.00000000       3.00007701       1.82407856    
  -1.15368605      -1.51592600      -0.00000000       3.00007701       1.82407856    
  -1.20120299      -1.47855902      -0.00000000       3.00007701       1.82407856    
 -0.952499986      -1.64977801      -0.00000000       2.71670008       1.85447431    
  -1.00436401      -1.61872697      -0.00000000       2.71670008       1.85447431    
   0.00000000       0.00000000       0.00000000       2.71670008       1.85447431    
 -0.899676025      -1.67916906      -0.00000000       2.71670008       1.85447431    
 -0.735987008      -1.75708497      -0.00000000       2.50704575       1.88124955    
 -0.791365981      -1.73284900      -0.00000000       2.50704575       1.88124955    
   0.00000000       0.00000000       0.00000000       2.50704575       1.88124955    
 -0.679867983      -1.77955198      -0.00000000       2.50704575       1.88124955    
   0.00000000       0.00000000       0.00000000       2.59969640       1.86888421    
 -0.791365981      -1.73284900      -0.00000000       2.59969640       1.86888421    
 -0.845947027      -1.70686805      -0.00000000       2.59969640       1.86888421    
 -0.899676025      -1.67916906      -0.00000000       2.59969640       1.86888421    
 -0.623063982      -1.80022705      -0.00000000       2.43799067       1.89110911    
 -0.679867983      -1.77955198      -0.00000000       2.43799067       1.89110911    
   0.00000000       0.00000000       0.00000000       2.43799067       1.89110911    
 -0.565632999      -1.81908906      -0.00000000       2.43799067       1.89110911    
 -0.390157014      -1.86461902      -0.00000000       2.35633779       1.90357709    
 -0.449120998      -1.85130095      -0.00000000       2.35633779       1.90357709    
   0.00000000       0.00000000       0.00000000       2.35633779       1.90357709    
 -0.330799997      -1.87605906      -0.00000000       2.35633779       1.90357709    
   0.00000000       0.00000000       0.00000000       2.38947749       1.89839935    
 -0.449120998      -1.85130095      -0.00000000       2.38947749       1.89839935    
 -0.507632971      -1.83611906      -0.00000000       2.38947749       1.89839935    
 -0.565632999      -1.81908906      -0.00000000       2.38947749       1.89839935    
 -0.271109998      -1.88560998      -0.00000000       2.33606195       1.90683913    
 -0.330799997      -1.87605906      -0.00000000       2.33606195       1.90683913    
   0.00000000       0.00000000       0.00000000       2.33606195       1.90683913    
 -0.211146995      -1.89326203      -0.00000000       2.33606195       1.90683913    
  -3.02249994E-02  -1.90476000      -0.00000000       2.31924963       1.90961647    
  -9.06440020E-02  -1.90284204      -0.00000000       2.31924963       1.90961647    
   0.00000000       0.00000000       0.00000000       2.31924963       1.90961647    
   3.02249994E-02  -1.90476000      -0.00000000       2.31924963       1.90961647    
   0.00000000       0.00000000       0.00000000       2.32454658       1.90872991    
  -9.06440020E-02  -1.90284204      -0.00000000       2.32454658       1.90872991    
 -0.150970995      -1.89900804      -0.00000000       2.32454658       1.90872991    
 -0.211146995      -1.89326203      -0.00000000       2.32454658       1.90872991    
   9.06440020E-02  -1.90284204      -0.00000000       2.31968498       1.90955329    
   3.02249994E-02  -1.90476000      -0.00000000       2.31968498       1.90955329    
   0.00000000       0.00000000       0.00000000       2.31968498       1.90955329    
  0.150970995      -1.89900804      -0.00000000       2.31968498       1.90955329    
  0.330799997      -1.87605906      -0.00000000       2.33997703       1.90626001    
  0.271109998      -1.88560998      -0.00000000       2.33997703       1.90626001    
   0.00000000       0.00000000       0.00000000       2.33997703       1.90626001    
  0.390157014      -1.86461902      -0.00000000       2.33997703       1.90626001    
   0.00000000       0.00000000       0.00000000       2.32631826       1.90846956    
  0.271109998      -1.88560998      -0.00000000       2.32631826       1.90846956    
  0.211146995      -1.89326203      -0.00000000       2.32631826       1.90846956    
  0.150970995      -1.89900804      -0.00000000       2.32631826       1.90846956    
  0.449120998      -1.85130095      -0.00000000       2.36449552       1.90237343    
  0.390157014      -1.86461902      -0.00000000       2.36449552       1.90237343    
   0.00000000       0.00000000       0.00000000       2.36449552       1.90237343    
  0.507632971      -1.83611906      -0.00000000       2.36449552       1.90237343    
  0.679867983      -1.77955198      -0.00000000       2.45707512       1.88847232    
  0.623063982      -1.80022705      -0.00000000       2.45707512       1.88847232    
   0.00000000       0.00000000       0.00000000       2.45707512       1.88847232    
  0.735987008      -1.75708497      -0.00000000       2.45707512       1.88847232    
   0.00000000       0.00000000       0.00000000       2.40228343       1.89655924    
  0.623063982      -1.80022705      -0.00000000       2.40228343       1.89655924    
  0.565632999      -1.81908906      -0.00000000       2.40228343       1.89655924    
  0.507632971      -1.83611906      -0.00000000       2.40228343       1.89655924    
  0.791365981      -1.73284900      -0.00000000       2.53381729       1.87776589    
  0.735987008      -1.75708497      -0.00000000       2.53381729       1.87776589    
   0.00000000       0.00000000       0.00000000       2.53381729       1.87776589    
  0.845947027      -1.70686805      -0.00000000       2.53381729       1.87776589    
   1.00436401      -1.61872697      -0.00000000       2.75277781       1.85051978    
  0.952499986      -1.64977801      -0.00000000       2.75277781       1.85051978    
   0.00000000       0.00000000       0.00000000       2.75277781       1.85051978    
   1.05521798      -1.58604598      -0.00000000       2.75277781       1.85051978    
   0.00000000       0.00000000       0.00000000       2.63284087       1.86489367    
  0.952499986      -1.64977801      -0.00000000       2.63284087       1.86489367    
  0.899676025      -1.67916906      -0.00000000       2.63284087       1.86489367    
  0.845947027      -1.70686805      -0.00000000       2.63284087       1.86489367    
   1.10500801      -1.55176699      -0.00000000       2.88790250       1.83569646    
   1.05521798      -1.58604598      -0.00000000       2.88790250       1.83569646    
   0.00000000       0.00000000       0.00000000       2.88790250       1.83569646    
   1.15368605      -1.51592600      -0.00000000       2.88790250       1.83569646    
   1.29255998      -1.39939702      -0.00000000       3.15654445       1.80959809    
   1.24750996      -1.43970299      -0.00000000       3.15654445       1.80959809    
   0.00000000       0.00000000       0.00000000       3.15654445       1.80959809    
   1.33631003      -1.35768199      -0.00000000       3.15654445       1.80959809    
   0.00000000       0.00000000       0.00000000       3.02913141       1.82149339    
   1.24750996      -1.43970299      -0.00000000       3.02913141       1.82149339    
   1.20120299      -1.47855902      -0.00000000       3.02913141       1.82149339    