 VARIABLES="X" "Y" "Z" "abs(p) (Pa)" "angle(p) (rad)"
ZONE N=    802,E =     800, F=FEPOINT, ET=QUADRILATERAL
   1.90499997       0.00000000      -0.00000000       31.7273808      -1.73535240    
   1.90404105      -6.04420006E-02  -0.00000000       31.7273808      -1.73535240    
   0.00000000       0.00000000       0.00000000       31.7273808      -1.73535240    
   1.90404105       6.04420006E-02  -0.00000000       31.7273808      -1.73535240    
   1.88967395      0.241159007      -0.00000000       31.6817455      -1.73550677    
   1.89637399      0.181081995      -0.00000000       31.6817455      -1.73550677    
   0.00000000       0.00000000       0.00000000       31.6817455      -1.73550677    
   1.88107097      0.300992996      -0.00000000       31.6817455      -1.73550677    
   0.00000000       0.00000000       0.00000000       31.7207890      -1.73535991    
   1.89637399      0.181081995      -0.00000000       31.7207890      -1.73535991    
   1.90116501      0.120823003      -0.00000000       31.7207890      -1.73535991    
   1.90404105       6.04420006E-02  -0.00000000       31.7207890      -1.73535991    
   1.87057400      0.360523999      -0.00000000       31.6320782      -1.73565388    
   1.88107097      0.300992996      -0.00000000       31.6320782      -1.73565388    
   0.00000000       0.00000000       0.00000000       31.6320782      -1.73565388    
   1.85819399      0.419692010      -0.00000000       31.6320782      -1.73565388    
   1.80988598      0.594424009      -0.00000000       31.5820198      -1.73542142    
   1.82783401      0.536701024      -0.00000000       31.5820198      -1.73542142    
   0.00000000       0.00000000       0.00000000       31.5820198      -1.73542142    
   1.79011405      0.651548028      -0.00000000       31.5820198      -1.73542142    
   0.00000000       0.00000000       0.00000000       31.5920219      -1.73566854    
   1.82783401      0.536701024      -0.00000000       31.5920219      -1.73566854    
   1.84394205      0.478437006      -0.00000000       31.5920219      -1.73566854    
   1.85819399      0.419692010      -0.00000000       31.5920219      -1.73566854    
   1.76854098      0.708016992      -0.00000000       31.6373940      -1.73468935    
   1.79011405      0.651548028      -0.00000000       31.6373940      -1.73468935    
   0.00000000       0.00000000       0.00000000       31.6373940      -1.73468935    
   1.74518704      0.763773024      -0.00000000       31.6373940      -1.73468935    
   1.66468298      0.926204979      -0.00000000       31.9773560      -1.73159289    
   1.69323206      0.872922003      -0.00000000       31.9773560      -1.73159289    
   0.00000000       0.00000000       0.00000000       31.9773560      -1.73159289    
   1.63445795      0.978555024      -0.00000000       31.9773560      -1.73159289    
   0.00000000       0.00000000       0.00000000       31.7735500      -1.73338211    
   1.69323206      0.872922003      -0.00000000       31.7735500      -1.73338211    
   1.72007501      0.818759024      -0.00000000       31.7735500      -1.73338211    
   1.74518704      0.763773024      -0.00000000       31.7735500      -1.73338211    
   1.60258806       1.02992105      -0.00000000       32.2201843      -1.72951150    
   1.63445795      0.978555024      -0.00000000       32.2201843      -1.72951150    
   0.00000000       0.00000000       0.00000000       32.2201843      -1.72951150    
   1.56910396       1.08024895      -0.00000000       32.2201843      -1.72951150    
   1.45931494       1.22450995      -0.00000000       32.5228043      -1.72626841    
   1.49743104       1.17759299      -0.00000000       32.5228043      -1.72626841    
   0.00000000       0.00000000       0.00000000       32.5228043      -1.72626841    
   1.41972899       1.27019501      -0.00000000       32.5228043      -1.72626841    
   0.00000000       0.00000000       0.00000000       32.4481010      -1.72746789    
   1.49743104       1.17759299      -0.00000000       32.4481010      -1.72746789    
   1.53403997       1.12949002      -0.00000000       32.4481010      -1.72746789    
   1.56910396       1.08024895      -0.00000000       32.4481010      -1.72746789    
   1.37871301       1.31459999      -0.00000000       31.9113846      -1.72906518    
   1.41972899       1.27019501      -0.00000000       31.9113846      -1.72906518    
   0.00000000       0.00000000       0.00000000       31.9113846      -1.72906518    
   1.33631003       1.35768199      -0.00000000       31.9113846      -1.72906518    
   1.20120299       1.47855902      -0.00000000       27.2155266      -1.76021385    
   1.24750996       1.43970299      -0.00000000       27.2155266      -1.76021385    
   0.00000000       0.00000000       0.00000000       27.2155266      -1.76021385    
   1.15368605       1.51592600      -0.00000000       27.2155266      -1.76021385    
   0.00000000       0.00000000       0.00000000       29.9080830      -1.74102807    
   1.24750996       1.43970299      -0.00000000       29.9080830      -1.74102807    
   1.29255998       1.39939702      -0.00000000       29.9080830      -1.74102807    
   1.33631003       1.35768199      -0.00000000       29.9080830      -1.74102807    
   1.10500801       1.55176699      -0.00000000       24.4314346      -1.78454638    
   1.15368605       1.51592600      -0.00000000       24.4314346      -1.78454638    
   0.00000000       0.00000000       0.00000000       24.4314346      -1.78454638    
   1.05521798       1.58604598      -0.00000000       24.4314346      -1.78454638    
  0.899676025       1.67916906      -0.00000000       19.1164074      -1.85078967    
  0.952499986       1.64977801      -0.00000000       19.1164074      -1.85078967    
   0.00000000       0.00000000       0.00000000       19.1164074      -1.85078967    
  0.845947027       1.70686805      -0.00000000       19.1164074      -1.85078967    
   0.00000000       0.00000000       0.00000000       21.7141857      -1.81432950    
  0.952499986       1.64977801      -0.00000000       21.7141857      -1.81432950    
   1.00436401       1.61872697      -0.00000000       21.7141857      -1.81432950    
   1.05521798       1.58604598      -0.00000000       21.7141857      -1.81432950    
  0.791365981       1.73284900      -0.00000000       16.6755600      -1.89561033    
  0.845947027       1.70686805      -0.00000000       16.6755600      -1.89561033    
   0.00000000       0.00000000       0.00000000       16.6755600      -1.89561033    
  0.735987008       1.75708497      -0.00000000       16.6755600      -1.89561033    
  0.565632999       1.81908906      -0.00000000       12.2382183      -2.02575445    
  0.623063982       1.80022705      -0.00000000       12.2382183      -2.02575445    
   0.00000000       0.00000000       0.00000000       12.2382183      -2.02575445    
  0.507632971       1.83611906      -0.00000000       12.2382183      -2.02575445    
   0.00000000       0.00000000       0.00000000       14.3857756      -1.95208704    
  0.623063982       1.80022705      -0.00000000       14.3857756      -1.95208704    
  0.679867983       1.77955198      -0.00000000       14.3857756      -1.95208704    
  0.735987008       1.75708497      -0.00000000       14.3857756      -1.95208704    
  0.449120998       1.85130095      -0.00000000       10.2444658      -2.12557340    
  0.507632971       1.83611906      -0.00000000       10.2444658      -2.12557340    
   0.00000000       0.00000000       0.00000000       10.2444658      -2.12557340    
  0.390157014       1.86461902      -0.00000000       10.2444658      -2.12557340    
  0.211146995       1.89326203      -0.00000000       6.91375780      -2.47133040    
  0.271109998       1.88560998      -0.00000000       6.91375780      -2.47133040    
   0.00000000       0.00000000       0.00000000       6.91375780      -2.47133040    
  0.150970995       1.89900804      -0.00000000       6.91375780      -2.47133040    
   0.00000000       0.00000000       0.00000000       8.44374943      -2.26612997    
  0.271109998       1.88560998      -0.00000000       8.44374943      -2.26612997    
  0.330799997       1.87605906      -0.00000000       8.44374943      -2.26612997    
  0.390157014       1.86461902      -0.00000000       8.44374943      -2.26612997    
   9.06440020E-02   1.90284204      -0.00000000       5.82205343      -2.76905036    
  0.150970995       1.89900804      -0.00000000       5.82205343      -2.76905036    
   0.00000000       0.00000000       0.00000000       5.82205343      -2.76905036    
   3.02249994E-02   1.90476000      -0.00000000       5.82205343      -2.76905036    
 -0.150970995       1.89900804      -0.00000000       5.85610342       2.75301361    
  -9.06440020E-02   1.90284204      -0.00000000       5.85610342       2.75301361    
   0.00000000       0.00000000       0.00000000       5.85610342       2.75301361    
 -0.211146995       1.89326203      -0.00000000       5.85610342       2.75301361    
   0.00000000       0.00000000       0.00000000       5.42332029       3.13298678    
  -9.06440020E-02   1.90284204      -0.00000000       5.42332029       3.13298678    
  -3.02249994E-02   1.90476000      -0.00000000       5.42332029       3.13298678    
   3.02249994E-02   1.90476000      -0.00000000       5.42332029       3.13298678    
 -0.271109998       1.88560998      -0.00000000       6.98053169       2.45795822    
 -0.211146995       1.89326203      -0.00000000       6.98053169       2.45795822    
   0.00000000       0.00000000       0.00000000       6.98053169       2.45795822    
 -0.330799997       1.87605906      -0.00000000       6.98053169       2.45795822    
 -0.507632971       1.83611906      -0.00000000       10.4351931       2.11259556    
 -0.449120998       1.85130095      -0.00000000       10.4351931       2.11259556    
   0.00000000       0.00000000       0.00000000       10.4351931       2.11259556    
 -0.565632999       1.81908906      -0.00000000       10.4351931       2.11259556    
   0.00000000       0.00000000       0.00000000       8.56108379       2.25323701    
 -0.449120998       1.85130095      -0.00000000       8.56108379       2.25323701    
 -0.390157014       1.86461902      -0.00000000       8.56108379       2.25323701    
 -0.330799997       1.87605906      -0.00000000       8.56108379       2.25323701    
 -0.623063982       1.80022705      -0.00000000       12.5105867       2.01328063    
 -0.565632999       1.81908906      -0.00000000       12.5105867       2.01328063    
   0.00000000       0.00000000       0.00000000       12.5105867       2.01328063    
 -0.679867983       1.77955198      -0.00000000       12.5105867       2.01328063    
 -0.845947027       1.70686805      -0.00000000       17.1796799       1.88362265    
 -0.791365981       1.73284900      -0.00000000       17.1796799       1.88362265    
   0.00000000       0.00000000       0.00000000       17.1796799       1.88362265    
 -0.899676025       1.67916906      -0.00000000       17.1796799       1.88362265    
   0.00000000       0.00000000       0.00000000       14.7626209       1.93986523    
 -0.791365981       1.73284900      -0.00000000       14.7626209       1.93986523    
 -0.735987008       1.75708497      -0.00000000       14.7626209       1.93986523    
 -0.679867983       1.77955198      -0.00000000       14.7626209       1.93986523    
 -0.952499986       1.64977801      -0.00000000       19.7324390       1.83966184    
 -0.899676025       1.67916906      -0.00000000       19.7324390       1.83966184    
   0.00000000       0.00000000       0.00000000       19.7324390       1.83966184    
  -1.00436401       1.61872697      -0.00000000       19.7324390       1.83966184    
  -1.15368605       1.51592600      -0.00000000       25.0605221       1.77721214    
  -1.10500801       1.55176699      -0.00000000       25.0605221       1.77721214    
   0.00000000       0.00000000       0.00000000       25.0605221       1.77721214    
  -1.20120299       1.47855902      -0.00000000       25.0605221       1.77721214    
   0.00000000       0.00000000       0.00000000       22.3798695       1.80486560    
  -1.10500801       1.55176699      -0.00000000       22.3798695       1.80486560    
  -1.05521798       1.58604598      -0.00000000       22.3798695       1.80486560    
  -1.00436401       1.61872697      -0.00000000       22.3798695       1.80486560    
  -1.24750996       1.43970299      -0.00000000       27.6250191       1.75585473    
  -1.20120299       1.47855902      -0.00000000       27.6250191       1.75585473    
   0.00000000       0.00000000       0.00000000       27.6250191       1.75585473    
  -1.29255998       1.39939702      -0.00000000       27.6250191       1.75585473    
  -1.41972899       1.27019501      -0.00000000       30.1164894       1.73956108    
  -1.37871301       1.31459999      -0.00000000       30.1164894       1.73956108    
   0.00000000       0.00000000       0.00000000       30.1164894       1.73956108    
  -1.45931494       1.22450995      -0.00000000       30.1164894       1.73956108    
   0.00000000       0.00000000       0.00000000       29.5410213       1.74257076    
  -1.37871301       1.31459999      -0.00000000       29.5410213       1.74257076    
  -1.33631003       1.35768199      -0.00000000       29.5410213       1.74257076    
  -1.29255998       1.39939702      -0.00000000       29.5410213       1.74257076    
  -1.49743104       1.17759299      -0.00000000       30.0205402       1.74109292    
  -1.45931494       1.22450995      -0.00000000       30.0205402       1.74109292    
   0.00000000       0.00000000       0.00000000       30.0205402       1.74109292    
  -1.53403997       1.12949002      -0.00000000       30.0205402       1.74109292    
  -1.63445795      0.978555024      -0.00000000       29.6087646       1.74547672    
  -1.60258806       1.02992105      -0.00000000       29.6087646       1.74547672    
   0.00000000       0.00000000       0.00000000       29.6087646       1.74547672    
  -1.66468298      0.926204979      -0.00000000       29.6087646       1.74547672    
   0.00000000       0.00000000       0.00000000       29.8049183       1.74338269    
  -1.60258806       1.02992105      -0.00000000       29.8049183       1.74338269    
  -1.56910396       1.08024895      -0.00000000       29.8049183       1.74338269    
  -1.53403997       1.12949002      -0.00000000       29.8049183       1.74338269    
  -1.69323206      0.872922003      -0.00000000       29.4757862       1.74705255    
  -1.66468298      0.926204979      -0.00000000       29.4757862       1.74705255    
   0.00000000       0.00000000       0.00000000       29.4757862       1.74705255    
  -1.72007501      0.818759024      -0.00000000       29.4757862       1.74705255    
  -1.79011405      0.651548028      -0.00000000       29.4663334       1.74811530    
  -1.76854098      0.708016992      -0.00000000       29.4663334       1.74811530    
   0.00000000       0.00000000       0.00000000       29.4663334       1.74811530    
  -1.80988598      0.594424009      -0.00000000       29.4663334       1.74811530    
   0.00000000       0.00000000       0.00000000       29.4345417       1.74788916    
  -1.76854098      0.708016992      -0.00000000       29.4345417       1.74788916    
  -1.74518704      0.763773024      -0.00000000       29.4345417       1.74788916    
  -1.72007501      0.818759024      -0.00000000       29.4345417       1.74788916    
  -1.82783401      0.536701024      -0.00000000       29.5515900       1.74787331    
  -1.80988598      0.594424009      -0.00000000       29.5515900       1.74787331    
   0.00000000       0.00000000       0.00000000       29.5515900       1.74787331    
  -1.84394205      0.478437006      -0.00000000       29.5515900       1.74787331    
  -1.88107097      0.300992996      -0.00000000       29.7672291       1.74683428    
  -1.87057400      0.360523999      -0.00000000       29.7672291       1.74683428    
   0.00000000       0.00000000       0.00000000       29.7672291       1.74683428    
  -1.88967395      0.241159007      -0.00000000       29.7672291       1.74683428    
   0.00000000       0.00000000       0.00000000       29.6583576       1.74739718    
  -1.87057400      0.360523999      -0.00000000       29.6583576       1.74739718    
  -1.85819399      0.419692010      -0.00000000       29.6583576       1.74739718    
  -1.84394205      0.478437006      -0.00000000       29.6583576       1.74739718    
  -1.89637399      0.181081995      -0.00000000       29.8506241       1.74638283    
  -1.88967395      0.241159007      -0.00000000       29.8506241       1.74638283    
   0.00000000       0.00000000       0.00000000       29.8506241       1.74638283    
  -1.90116501      0.120823003      -0.00000000       29.8506241       1.74638283    
  -1.90404105      -6.04420006E-02  -0.00000000       29.9016380       1.74609065    
  -1.90499997       0.00000000      -0.00000000       29.9016380       1.74609065    
   0.00000000       0.00000000       0.00000000       29.9016380       1.74609065    
  -1.90116501     -0.120823003      -0.00000000       29.9016380       1.74609065    
   0.00000000       0.00000000       0.00000000       29.8922882       1.74615741    
  -1.90499997       0.00000000      -0.00000000       29.8922882       1.74615741    
  -1.90404105       6.04420006E-02  -0.00000000       29.8922882       1.74615741    
  -1.90116501      0.120823003      -0.00000000       29.8922882       1.74615741    
  -1.89637399     -0.181081995      -0.00000000       29.8718872       1.74622953    
  -1.90116501     -0.120823003      -0.00000000       29.8718872       1.74622953    
   0.00000000       0.00000000       0.00000000       29.8718872       1.74622953    
  -1.88967395     -0.241159007      -0.00000000       29.8718872       1.74622953    
  -1.85819399     -0.419692010      -0.00000000       29.7237740       1.74692225    
  -1.87057400     -0.360523999      -0.00000000       29.7237740       1.74692225    
   0.00000000       0.00000000       0.00000000       29.7237740       1.74692225    
  -1.84394205     -0.478437006      -0.00000000       29.7237740       1.74692225    
   0.00000000       0.00000000       0.00000000       29.8041840       1.74656641    
  -1.87057400     -0.360523999      -0.00000000       29.8041840       1.74656641    
  -1.88107097     -0.300992996      -0.00000000       29.8041840       1.74656641    
  -1.88967395     -0.241159007      -0.00000000       29.8041840       1.74656641    
  -1.82783401     -0.536701024      -0.00000000       29.6527691       1.74713385    
  -1.84394205     -0.478437006      -0.00000000       29.6527691       1.74713385    
   0.00000000       0.00000000       0.00000000       29.6527691       1.74713385    
  -1.80988598     -0.594424009      -0.00000000       29.6527691       1.74713385    
  -1.74518704     -0.763773024      -0.00000000       29.6251431       1.74650264    
  -1.76854098     -0.708016992      -0.00000000       29.6251431       1.74650264    
   0.00000000       0.00000000       0.00000000       29.6251431       1.74650264    
  -1.72007501     -0.818759024      -0.00000000       29.6251431       1.74650264    
   0.00000000       0.00000000       0.00000000       29.6108570       1.74705994    
  -1.76854098     -0.708016992      -0.00000000       29.6108570       1.74705994    
  -1.79011405     -0.651548028      -0.00000000       29.6108570       1.74705994    
  -1.80988598     -0.594424009      -0.00000000       29.6108570       1.74705994    
  -1.69323206     -0.872922003      -0.00000000       29.7108154       1.74535739    
  -1.72007501     -0.818759024      -0.00000000       29.7108154       1.74535739    
   0.00000000       0.00000000       0.00000000       29.7108154       1.74535739    
  -1.66468298     -0.926204979      -0.00000000       29.7108154       1.74535739    
  -1.56910396      -1.08024895      -0.00000000       30.0390949       1.74173903    
  -1.60258806      -1.02992105      -0.00000000       30.0390949       1.74173903    
   0.00000000       0.00000000       0.00000000       30.0390949       1.74173903    
  -1.53403997      -1.12949002      -0.00000000       30.0390949       1.74173903    
   0.00000000       0.00000000       0.00000000       29.8583565       1.74369884    
  -1.60258806      -1.02992105      -0.00000000       29.8583565       1.74369884    
  -1.63445795     -0.978555024      -0.00000000       29.8583565       1.74369884    
  -1.66468298     -0.926204979      -0.00000000       29.8583565       1.74369884    
  -1.49743104      -1.17759299      -0.00000000       30.2014256       1.73983657    
  -1.53403997      -1.12949002      -0.00000000       30.2014256       1.73983657    
   0.00000000       0.00000000       0.00000000       30.2014256       1.73983657    
  -1.45931494      -1.22450995      -0.00000000       30.2014256       1.73983657    
  -1.33631003      -1.35768199      -0.00000000       29.5521660       1.74245620    
  -1.37871301      -1.31459999      -0.00000000       29.5521660       1.74245620    
   0.00000000       0.00000000       0.00000000       29.5521660       1.74245620    
  -1.29255998      -1.39939702      -0.00000000       29.5521660       1.74245620    
   0.00000000       0.00000000       0.00000000       30.2141056       1.73887348    
  -1.37871301      -1.31459999      -0.00000000       30.2141056       1.73887348    
  -1.41972899      -1.27019501      -0.00000000       30.2141056       1.73887348    
  -1.45931494      -1.22450995      -0.00000000       30.2141056       1.73887348    
  -1.24750996      -1.43970299      -0.00000000       27.5425301       1.75646544    
  -1.29255998      -1.39939702      -0.00000000       27.5425301       1.75646544    
   0.00000000       0.00000000       0.00000000       27.5425301       1.75646544    
  -1.20120299      -1.47855902      -0.00000000       27.5425301       1.75646544    
  -1.05521798      -1.58604598      -0.00000000       22.1258488       1.80789125    
  -1.10500801      -1.55176699      -0.00000000       22.1258488       1.80789125    
   0.00000000       0.00000000       0.00000000       22.1258488       1.80789125    
  -1.00436401      -1.61872697      -0.00000000       22.1258488       1.80789125    
   0.00000000       0.00000000       0.00000000       24.8757648       1.77894092    
  -1.10500801      -1.55176699      -0.00000000       24.8757648       1.77894092    
  -1.15368605      -1.51592600      -0.00000000       24.8757648       1.77894092    
  -1.20120299      -1.47855902      -0.00000000       24.8757648       1.77894092    
 -0.952499986      -1.64977801      -0.00000000       19.4465218       1.84408605    
  -1.00436401      -1.61872697      -0.00000000       19.4465218       1.84408605    
   0.00000000       0.00000000       0.00000000       19.4465218       1.84408605    
 -0.899676025      -1.67916906      -0.00000000       19.4465218       1.84408605    
 -0.735987008      -1.75708497      -0.00000000       14.5015087       1.94724405    
 -0.791365981      -1.73284900      -0.00000000       14.5015087       1.94724405    
   0.00000000       0.00000000       0.00000000       14.5015087       1.94724405    
 -0.679867983      -1.77955198      -0.00000000       14.5015087       1.94724405    
   0.00000000       0.00000000       0.00000000       16.8915424       1.88956249    
 -0.791365981      -1.73284900      -0.00000000       16.8915424       1.88956249    
 -0.845947027      -1.70686805      -0.00000000       16.8915424       1.88956249    
 -0.899676025      -1.67916906      -0.00000000       16.8915424       1.88956249    
 -0.623063982      -1.80022705      -0.00000000       12.2788429       2.02261472    
 -0.679867983      -1.77955198      -0.00000000       12.2788429       2.02261472    
   0.00000000       0.00000000       0.00000000       12.2788429       2.02261472    
 -0.565632999      -1.81908906      -0.00000000       12.2788429       2.02261472    
 -0.390157014      -1.86461902      -0.00000000       8.39197063       2.26997876    
 -0.449120998      -1.85130095      -0.00000000       8.39197063       2.26997876    
   0.00000000       0.00000000       0.00000000       8.39197063       2.26997876    
 -0.330799997      -1.87605906      -0.00000000       8.39197063       2.26997876    
   0.00000000       0.00000000       0.00000000       10.2293224       2.12507510    
 -0.449120998      -1.85130095      -0.00000000       10.2293224       2.12507510    
 -0.507632971      -1.83611906      -0.00000000       10.2293224       2.12507510    
 -0.565632999      -1.81908906      -0.00000000       10.2293224       2.12507510    
 -0.271109998      -1.88560998      -0.00000000       6.85504818       2.48093271    
 -0.330799997      -1.87605906      -0.00000000       6.85504818       2.48093271    
   0.00000000       0.00000000       0.00000000       6.85504818       2.48093271    
 -0.211146995      -1.89326203      -0.00000000       6.85504818       2.48093271    
  -3.02249994E-02  -1.90476000      -0.00000000       5.42519283      -3.11398983    
  -9.06440020E-02  -1.90284204      -0.00000000       5.42519283      -3.11398983    
   0.00000000       0.00000000       0.00000000       5.42519283      -3.11398983    
   3.02249994E-02  -1.90476000      -0.00000000       5.42519283      -3.11398983    
   0.00000000       0.00000000       0.00000000       5.78522682       2.78429174    
  -9.06440020E-02  -1.90284204      -0.00000000       5.78522682       2.78429174    
 -0.150970995      -1.89900804      -0.00000000       5.78522682       2.78429174    
 -0.211146995      -1.89326203      -0.00000000       5.78522682       2.78429174    
   9.06440020E-02  -1.90284204      -0.00000000       5.89629126      -2.73782659    
   3.02249994E-02  -1.90476000      -0.00000000       5.89629126      -2.73782659    
   0.00000000       0.00000000       0.00000000       5.89629126      -2.73782659    
  0.150970995      -1.89900804      -0.00000000       5.89629126      -2.73782659    
  0.330799997      -1.87605906      -0.00000000       8.60357380      -2.25052762    
  0.271109998      -1.88560998      -0.00000000       8.60357380      -2.25052762    
   0.00000000       0.00000000       0.00000000       8.60357380      -2.25052762    
  0.390157014      -1.86461902      -0.00000000       8.60357380      -2.25052762    
   0.00000000       0.00000000       0.00000000       7.03817606      -2.44913602    
  0.271109998      -1.88560998      -0.00000000       7.03817606      -2.44913602    
  0.211146995      -1.89326203      -0.00000000       7.03817606      -2.44913602    
  0.150970995      -1.89900804      -0.00000000       7.03817606      -2.44913602    
  0.449120998      -1.85130095      -0.00000000       10.4396925      -2.11376929    
  0.390157014      -1.86461902      -0.00000000       10.4396925      -2.11376929    
   0.00000000       0.00000000       0.00000000       10.4396925      -2.11376929    
  0.507632971      -1.83611906      -0.00000000       10.4396925      -2.11376929    
  0.679867983      -1.77955198      -0.00000000       14.6370249      -1.94486165    
  0.623063982      -1.80022705      -0.00000000       14.6370249      -1.94486165    
   0.00000000       0.00000000       0.00000000       14.6370249      -1.94486165    
  0.735987008      -1.75708497      -0.00000000       14.6370249      -1.94486165    
   0.00000000       0.00000000       0.00000000       12.4650555      -2.01656318    
  0.623063982      -1.80022705      -0.00000000       12.4650555      -2.01656318    
  0.565632999      -1.81908906      -0.00000000       12.4650555      -2.01656318    
  0.507632971      -1.83611906      -0.00000000       12.4650555      -2.01656318    
  0.791365981      -1.73284900      -0.00000000       16.9571133      -1.88963819    
  0.735987008      -1.75708497      -0.00000000       16.9571133      -1.88963819    
   0.00000000       0.00000000       0.00000000       16.9571133      -1.88963819    
  0.845947027      -1.70686805      -0.00000000       16.9571133      -1.88963819    
   1.00436401      -1.61872697      -0.00000000       22.0230064      -1.81048155    
  0.952499986      -1.64977801      -0.00000000       22.0230064      -1.81048155    
   0.00000000       0.00000000       0.00000000       22.0230064      -1.81048155    
   1.05521798      -1.58604598      -0.00000000       22.0230064      -1.81048155    
   0.00000000       0.00000000       0.00000000       19.4265919      -1.84579897    
  0.952499986      -1.64977801      -0.00000000       19.4265919      -1.84579897    
  0.899676025      -1.67916906      -0.00000000       19.4265919      -1.84579897    
  0.845947027      -1.70686805      -0.00000000       19.4265919      -1.84579897    
   1.10500801      -1.55176699      -0.00000000       24.7089920      -1.78181553    
   1.05521798      -1.58604598      -0.00000000       24.7089920      -1.78181553    
   0.00000000       0.00000000       0.00000000       24.7089920      -1.78181553    
   1.15368605      -1.51592600      -0.00000000       24.7089920      -1.78181553    
   1.29255998      -1.39939702      -0.00000000       30.0121479      -1.74035728    
   1.24750996      -1.43970299      -0.00000000       30.0121479      -1.74035728    
   0.00000000       0.00000000       0.00000000       30.0121479      -1.74035728    
   1.33631003      -1.35768199      -0.00000000       30.0121479      -1.74035728    
   0.00000000       0.00000000       0.00000000       27.4231129      -1.75857317    
   1.24750996      -1.43970299      -0.00000000       27.4231129      -1.75857317    
   1.20120299      -1.47855902      -0.00000000       27.4231129      -1.75857317    