 VARIABLES="X" "Y" "Z" "abs(p) (Pa)" "angle(p) (rad)"
ZONE N=    802,E =     800, F=FEPOINT, ET=QUADRILATERAL
   1.90499997       0.00000000      -0.00000000      0.244215578       1.56504297    
   1.90404105      -6.04420006E-02  -0.00000000      0.244215578       1.56504297    
   0.00000000       0.00000000       0.00000000      0.244215578       1.56504297    
   1.90404105       6.04420006E-02  -0.00000000      0.244215578       1.56504297    
   1.88967395      0.241159007      -0.00000000       13.2823439       1.57069230    
   1.89637399      0.181081995      -0.00000000       13.2823439       1.57069230    
   0.00000000       0.00000000       0.00000000       13.2823439       1.57069230    
   1.88107097      0.300992996      -0.00000000       13.2823439       1.57069230    
   0.00000000       0.00000000       0.00000000       6.74255610       1.57058978    
   1.89637399      0.181081995      -0.00000000       6.74255610       1.57058978    
   1.90116501      0.120823003      -0.00000000       6.74255610       1.57058978    
   1.90404105       6.04420006E-02  -0.00000000       6.74255610       1.57058978    
   1.87057400      0.360523999      -0.00000000       19.9542446       1.57072759    
   1.88107097      0.300992996      -0.00000000       19.9542446       1.57072759    
   0.00000000       0.00000000       0.00000000       19.9542446       1.57072759    
   1.85819399      0.419692010      -0.00000000       19.9542446       1.57072759    
   1.80988598      0.594424009      -0.00000000       33.8579712       1.57075655    
   1.82783401      0.536701024      -0.00000000       33.8579712       1.57075655    
   0.00000000       0.00000000       0.00000000       33.8579712       1.57075655    
   1.79011405      0.651548028      -0.00000000       33.8579712       1.57075655    
   0.00000000       0.00000000       0.00000000       26.7901669       1.57074559    
   1.82783401      0.536701024      -0.00000000       26.7901669       1.57074559    
   1.84394205      0.478437006      -0.00000000       26.7901669       1.57074559    
   1.85819399      0.419692010      -0.00000000       26.7901669       1.57074559    
   1.76854098      0.708016992      -0.00000000       41.2358932       1.57076383    
   1.79011405      0.651548028      -0.00000000       41.2358932       1.57076383    
   0.00000000       0.00000000       0.00000000       41.2358932       1.57076383    
   1.74518704      0.763773024      -0.00000000       41.2358932       1.57076383    
   1.66468298      0.926204979      -0.00000000       56.8640099       1.57077301    
   1.69323206      0.872922003      -0.00000000       56.8640099       1.57077301    
   0.00000000       0.00000000       0.00000000       56.8640099       1.57077301    
   1.63445795      0.978555024      -0.00000000       56.8640099       1.57077301    
   0.00000000       0.00000000       0.00000000       48.9015617       1.57076907    
   1.69323206      0.872922003      -0.00000000       48.9015617       1.57076907    
   1.72007501      0.818759024      -0.00000000       48.9015617       1.57076907    
   1.74518704      0.763773024      -0.00000000       48.9015617       1.57076907    
   1.60258806       1.02992105      -0.00000000       65.0261765       1.57077599    
   1.63445795      0.978555024      -0.00000000       65.0261765       1.57077599    
   0.00000000       0.00000000       0.00000000       65.0261765       1.57077599    
   1.56910396       1.08024895      -0.00000000       65.0261765       1.57077599    
   1.45931494       1.22450995      -0.00000000       81.0662689       1.57078016    
   1.49743104       1.17759299      -0.00000000       81.0662689       1.57078016    
   0.00000000       0.00000000       0.00000000       81.0662689       1.57078016    
   1.41972899       1.27019501      -0.00000000       81.0662689       1.57078016    
   0.00000000       0.00000000       0.00000000       73.2489853       1.57077837    
   1.49743104       1.17759299      -0.00000000       73.2489853       1.57077837    
   1.53403997       1.12949002      -0.00000000       73.2489853       1.57077837    
   1.56910396       1.08024895      -0.00000000       73.2489853       1.57077837    
   1.37871301       1.31459999      -0.00000000       86.9263077       1.57078135    
   1.41972899       1.27019501      -0.00000000       86.9263077       1.57078135    
   0.00000000       0.00000000       0.00000000       86.9263077       1.57078135    
   1.33631003       1.35768199      -0.00000000       86.9263077       1.57078135    
   1.20120299       1.47855902      -0.00000000       88.5786743       1.57078207    
   1.24750996       1.43970299      -0.00000000       88.5786743       1.57078207    
   0.00000000       0.00000000       0.00000000       88.5786743       1.57078207    
   1.15368605       1.51592600      -0.00000000       88.5786743       1.57078207    
   0.00000000       0.00000000       0.00000000       88.7887039       1.57078183    
   1.24750996       1.43970299      -0.00000000       88.7887039       1.57078183    
   1.29255998       1.39939702      -0.00000000       88.7887039       1.57078183    
   1.33631003       1.35768199      -0.00000000       88.7887039       1.57078183    
   1.10500801       1.55176699      -0.00000000       88.0249939       1.57078218    
   1.15368605       1.51592600      -0.00000000       88.0249939       1.57078218    
   0.00000000       0.00000000       0.00000000       88.0249939       1.57078218    
   1.05521798       1.58604598      -0.00000000       88.0249939       1.57078218    
  0.899676025       1.67916906      -0.00000000       87.2772293       1.57078242    
  0.952499986       1.64977801      -0.00000000       87.2772293       1.57078242    
   0.00000000       0.00000000       0.00000000       87.2772293       1.57078242    
  0.845947027       1.70686805      -0.00000000       87.2772293       1.57078242    
   0.00000000       0.00000000       0.00000000       87.5571060       1.57078230    
  0.952499986       1.64977801      -0.00000000       87.5571060       1.57078230    
   1.00436401       1.61872697      -0.00000000       87.5571060       1.57078230    
   1.05521798       1.58604598      -0.00000000       87.5571060       1.57078230    
  0.791365981       1.73284900      -0.00000000       87.2544556       1.57078254    
  0.845947027       1.70686805      -0.00000000       87.2544556       1.57078254    
   0.00000000       0.00000000       0.00000000       87.2544556       1.57078254    
  0.735987008       1.75708497      -0.00000000       87.2544556       1.57078254    
  0.565632999       1.81908906      -0.00000000       87.8471527       1.57078278    
  0.623063982       1.80022705      -0.00000000       87.8471527       1.57078278    
   0.00000000       0.00000000       0.00000000       87.8471527       1.57078278    
  0.507632971       1.83611906      -0.00000000       87.8471527       1.57078278    
   0.00000000       0.00000000       0.00000000       87.4763870       1.57078266    
  0.623063982       1.80022705      -0.00000000       87.4763870       1.57078266    
  0.679867983       1.77955198      -0.00000000       87.4763870       1.57078266    
  0.735987008       1.75708497      -0.00000000       87.4763870       1.57078266    
  0.449120998       1.85130095      -0.00000000       88.2733841       1.57078302    
  0.507632971       1.83611906      -0.00000000       88.2733841       1.57078302    
   0.00000000       0.00000000       0.00000000       88.2733841       1.57078302    
  0.390157014       1.86461902      -0.00000000       88.2733841       1.57078302    
  0.211146995       1.89326203      -0.00000000       89.0625763       1.57078326    
  0.271109998       1.88560998      -0.00000000       89.0625763       1.57078326    
   0.00000000       0.00000000       0.00000000       89.0625763       1.57078326    
  0.150970995       1.89900804      -0.00000000       89.0625763       1.57078326    
   0.00000000       0.00000000       0.00000000       88.6942978       1.57078314    
  0.271109998       1.88560998      -0.00000000       88.6942978       1.57078314    
  0.330799997       1.87605906      -0.00000000       88.6942978       1.57078314    
  0.390157014       1.86461902      -0.00000000       88.6942978       1.57078314    
   9.06440020E-02   1.90284204      -0.00000000       89.3233643       1.57078326    
  0.150970995       1.89900804      -0.00000000       89.3233643       1.57078326    
   0.00000000       0.00000000       0.00000000       89.3233643       1.57078326    
   3.02249994E-02   1.90476000      -0.00000000       89.3233643       1.57078326    
 -0.150970995       1.89900804      -0.00000000       89.4360199       1.57078326    
  -9.06440020E-02   1.90284204      -0.00000000       89.4360199       1.57078326    
   0.00000000       0.00000000       0.00000000       89.4360199       1.57078326    
 -0.211146995       1.89326203      -0.00000000       89.4360199       1.57078326    
   0.00000000       0.00000000       0.00000000       89.4392242       1.57078326    
  -9.06440020E-02   1.90284204      -0.00000000       89.4392242       1.57078326    
  -3.02249994E-02   1.90476000      -0.00000000       89.4392242       1.57078326    
   3.02249994E-02   1.90476000      -0.00000000       89.4392242       1.57078326    
 -0.271109998       1.88560998      -0.00000000       89.3442535       1.57078314    
 -0.211146995       1.89326203      -0.00000000       89.3442535       1.57078314    
   0.00000000       0.00000000       0.00000000       89.3442535       1.57078314    
 -0.330799997       1.87605906      -0.00000000       89.3442535       1.57078314    
 -0.507632971       1.83611906      -0.00000000       89.1171722       1.57078302    
 -0.449120998       1.85130095      -0.00000000       89.1171722       1.57078302    
   0.00000000       0.00000000       0.00000000       89.1171722       1.57078302    
 -0.565632999       1.81908906      -0.00000000       89.1171722       1.57078302    
   0.00000000       0.00000000       0.00000000       89.2277908       1.57078314    
 -0.449120998       1.85130095      -0.00000000       89.2277908       1.57078314    
 -0.390157014       1.86461902      -0.00000000       89.2277908       1.57078314    
 -0.330799997       1.87605906      -0.00000000       89.2277908       1.57078314    
 -0.623063982       1.80022705      -0.00000000       89.0974655       1.57078290    
 -0.565632999       1.81908906      -0.00000000       89.0974655       1.57078290    
   0.00000000       0.00000000       0.00000000       89.0974655       1.57078290    
 -0.679867983       1.77955198      -0.00000000       89.0974655       1.57078290    
 -0.845947027       1.70686805      -0.00000000       89.6577911       1.57078278    
 -0.791365981       1.73284900      -0.00000000       89.6577911       1.57078278    
   0.00000000       0.00000000       0.00000000       89.6577911       1.57078278    
 -0.899676025       1.67916906      -0.00000000       89.6577911       1.57078278    
   0.00000000       0.00000000       0.00000000       89.2798233       1.57078278    
 -0.791365981       1.73284900      -0.00000000       89.2798233       1.57078278    
 -0.735987008       1.75708497      -0.00000000       89.2798233       1.57078278    
 -0.679867983       1.77955198      -0.00000000       89.2798233       1.57078278    
 -0.952499986       1.64977801      -0.00000000       90.2386093       1.57078266    
 -0.899676025       1.67916906      -0.00000000       90.2386093       1.57078266    
   0.00000000       0.00000000       0.00000000       90.2386093       1.57078266    
  -1.00436401       1.61872697      -0.00000000       90.2386093       1.57078266    
  -1.15368605       1.51592600      -0.00000000       91.5962219       1.57078254    
  -1.10500801       1.55176699      -0.00000000       91.5962219       1.57078254    
   0.00000000       0.00000000       0.00000000       91.5962219       1.57078254    
  -1.20120299       1.47855902      -0.00000000       91.5962219       1.57078254    
   0.00000000       0.00000000       0.00000000       90.9278564       1.57078254    
  -1.10500801       1.55176699      -0.00000000       90.9278564       1.57078254    
  -1.05521798       1.58604598      -0.00000000       90.9278564       1.57078254    
  -1.00436401       1.61872697      -0.00000000       90.9278564       1.57078254    
  -1.24750996       1.43970299      -0.00000000       91.7766266       1.57078230    
  -1.20120299       1.47855902      -0.00000000       91.7766266       1.57078230    
   0.00000000       0.00000000       0.00000000       91.7766266       1.57078230    
  -1.29255998       1.39939702      -0.00000000       91.7766266       1.57078230    
  -1.41972899       1.27019501      -0.00000000       83.8051147       1.57078075    
  -1.37871301       1.31459999      -0.00000000       83.8051147       1.57078075    
   0.00000000       0.00000000       0.00000000       83.8051147       1.57078075    
  -1.45931494       1.22450995      -0.00000000       83.8051147       1.57078075    
   0.00000000       0.00000000       0.00000000       89.8583527       1.57078183    
  -1.37871301       1.31459999      -0.00000000       89.8583527       1.57078183    
  -1.33631003       1.35768199      -0.00000000       89.8583527       1.57078183    
  -1.29255998       1.39939702      -0.00000000       89.8583527       1.57078183    
  -1.49743104       1.17759299      -0.00000000       75.6650009       1.57077897    
  -1.45931494       1.22450995      -0.00000000       75.6650009       1.57077897    
   0.00000000       0.00000000       0.00000000       75.6650009       1.57077897    
  -1.53403997       1.12949002      -0.00000000       75.6650009       1.57077897    
  -1.63445795      0.978555024      -0.00000000       58.9734764       1.57077396    
  -1.60258806       1.02992105      -0.00000000       58.9734764       1.57077396    
   0.00000000       0.00000000       0.00000000       58.9734764       1.57077396    
  -1.66468298      0.926204979      -0.00000000       58.9734764       1.57077396    
   0.00000000       0.00000000       0.00000000       67.2372131       1.57077682    
  -1.60258806       1.02992105      -0.00000000       67.2372131       1.57077682    
  -1.56910396       1.08024895      -0.00000000       67.2372131       1.57077682    
  -1.53403997       1.12949002      -0.00000000       67.2372131       1.57077682    
  -1.69323206      0.872922003      -0.00000000       50.9981995       1.57077038    
  -1.66468298      0.926204979      -0.00000000       50.9981995       1.57077038    
   0.00000000       0.00000000       0.00000000       50.9981995       1.57077038    
  -1.72007501      0.818759024      -0.00000000       50.9981995       1.57077038    
  -1.79011405      0.651548028      -0.00000000       36.1319695       1.57075918    
  -1.76854098      0.708016992      -0.00000000       36.1319695       1.57075918    
   0.00000000       0.00000000       0.00000000       36.1319695       1.57075918    
  -1.80988598      0.594424009      -0.00000000       36.1319695       1.57075918    
   0.00000000       0.00000000       0.00000000       43.3923187       1.57076573    
  -1.76854098      0.708016992      -0.00000000       43.3923187       1.57076573    
  -1.74518704      0.763773024      -0.00000000       43.3923187       1.57076573    
  -1.72007501      0.818759024      -0.00000000       43.3923187       1.57076573    
  -1.82783401      0.536701024      -0.00000000       29.1648922       1.57075012    
  -1.80988598      0.594424009      -0.00000000       29.1648922       1.57075012    
   0.00000000       0.00000000       0.00000000       29.1648922       1.57075012    
  -1.84394205      0.478437006      -0.00000000       29.1648922       1.57075012    
  -1.88107097      0.300992996      -0.00000000       15.8193655       1.57070947    
  -1.87057400      0.360523999      -0.00000000       15.8193655       1.57070947    
   0.00000000       0.00000000       0.00000000       15.8193655       1.57070947    
  -1.88967395      0.241159007      -0.00000000       15.8193655       1.57070947    
   0.00000000       0.00000000       0.00000000       22.4095364       1.57073569    
  -1.87057400      0.360523999      -0.00000000       22.4095364       1.57073569    
  -1.85819399      0.419692010      -0.00000000       22.4095364       1.57073569    
  -1.84394205      0.478437006      -0.00000000       22.4095364       1.57073569    
  -1.89637399      0.181081995      -0.00000000       9.34354782       1.57064819    
  -1.88967395      0.241159007      -0.00000000       9.34354782       1.57064819    
   0.00000000       0.00000000       0.00000000       9.34354782       1.57064819    
  -1.90116501      0.120823003      -0.00000000       9.34354782       1.57064819    
  -1.90404105      -6.04420006E-02  -0.00000000       3.53650665      -1.57039762    
  -1.90499997       0.00000000      -0.00000000       3.53650665      -1.57039762    
   0.00000000       0.00000000       0.00000000       3.53650665      -1.57039762    
  -1.90116501     -0.120823003      -0.00000000       3.53650665      -1.57039762    
   0.00000000       0.00000000       0.00000000       2.90344167       1.57031465    
  -1.90499997       0.00000000      -0.00000000       2.90344167       1.57031465    
  -1.90404105       6.04420006E-02  -0.00000000       2.90344167       1.57031465    
  -1.90116501      0.120823003      -0.00000000       2.90344167       1.57031465    
  -1.89637399     -0.181081995      -0.00000000       9.97314930      -1.57065380    
  -1.90116501     -0.120823003      -0.00000000       9.97314930      -1.57065380    
   0.00000000       0.00000000       0.00000000       9.97314930      -1.57065380    
  -1.88967395     -0.241159007      -0.00000000       9.97314930      -1.57065380    
  -1.85819399     -0.419692010      -0.00000000       23.1225986      -1.57073379    
  -1.87057400     -0.360523999      -0.00000000       23.1225986      -1.57073379    
   0.00000000       0.00000000       0.00000000       23.1225986      -1.57073379    
  -1.84394205     -0.478437006      -0.00000000       23.1225986      -1.57073379    
   0.00000000       0.00000000       0.00000000       16.4763317      -1.57070899    
  -1.87057400     -0.360523999      -0.00000000       16.4763317      -1.57070899    
  -1.88107097     -0.300992996      -0.00000000       16.4763317      -1.57070899    
  -1.88967395     -0.241159007      -0.00000000       16.4763317      -1.57070899    
  -1.82783401     -0.536701024      -0.00000000       29.9327831      -1.57074761    
  -1.84394205     -0.478437006      -0.00000000       29.9327831      -1.57074761    
   0.00000000       0.00000000       0.00000000       29.9327831      -1.57074761    
  -1.80988598     -0.594424009      -0.00000000       29.9327831      -1.57074761    
  -1.74518704     -0.763773024      -0.00000000       44.3158073      -1.57076299    
  -1.76854098     -0.708016992      -0.00000000       44.3158073      -1.57076299    
   0.00000000       0.00000000       0.00000000       44.3158073      -1.57076299    
  -1.72007501     -0.818759024      -0.00000000       44.3158073      -1.57076299    
   0.00000000       0.00000000       0.00000000       36.9721451      -1.57075644    
  -1.76854098     -0.708016992      -0.00000000       36.9721451      -1.57075644    
  -1.79011405     -0.651548028      -0.00000000       36.9721451      -1.57075644    
  -1.80988598     -0.594424009      -0.00000000       36.9721451      -1.57075644    
  -1.69323206     -0.872922003      -0.00000000       51.9607697      -1.57076776    
  -1.72007501     -0.818759024      -0.00000000       51.9607697      -1.57076776    
   0.00000000       0.00000000       0.00000000       51.9607697      -1.57076776    
  -1.66468298     -0.926204979      -0.00000000       51.9607697      -1.57076776    
  -1.56910396      -1.08024895      -0.00000000       68.0902634      -1.57077432    
  -1.60258806      -1.02992105      -0.00000000       68.0902634      -1.57077432    
   0.00000000       0.00000000       0.00000000       68.0902634      -1.57077432    
  -1.53403997      -1.12949002      -0.00000000       68.0902634      -1.57077432    
   0.00000000       0.00000000       0.00000000       59.9202156      -1.57077134    
  -1.60258806      -1.02992105      -0.00000000       59.9202156      -1.57077134    
  -1.63445795     -0.978555024      -0.00000000       59.9202156      -1.57077134    
  -1.66468298     -0.926204979      -0.00000000       59.9202156      -1.57077134    
  -1.49743104      -1.17759299      -0.00000000       76.3227692      -1.57077670    
  -1.53403997      -1.12949002      -0.00000000       76.3227692      -1.57077670    
   0.00000000       0.00000000       0.00000000       76.3227692      -1.57077670    
  -1.45931494      -1.22450995      -0.00000000       76.3227692      -1.57077670    
  -1.33631003      -1.35768199      -0.00000000       89.9088211      -1.57077956    
  -1.37871301      -1.31459999      -0.00000000       89.9088211      -1.57077956    
   0.00000000       0.00000000       0.00000000       89.9088211      -1.57077956    
  -1.29255998      -1.39939702      -0.00000000       89.9088211      -1.57077956    
   0.00000000       0.00000000       0.00000000       84.1392593      -1.57077849    
  -1.37871301      -1.31459999      -0.00000000       84.1392593      -1.57077849    
  -1.41972899      -1.27019501      -0.00000000       84.1392593      -1.57077849    
  -1.45931494      -1.22450995      -0.00000000       84.1392593      -1.57077849    
  -1.24750996      -1.43970299      -0.00000000       91.5461121      -1.57077968    
  -1.29255998      -1.39939702      -0.00000000       91.5461121      -1.57077968    
   0.00000000       0.00000000       0.00000000       91.5461121      -1.57077968    
  -1.20120299      -1.47855902      -0.00000000       91.5461121      -1.57077968    
  -1.05521798      -1.58604598      -0.00000000       90.2604675      -1.57077897    
  -1.10500801      -1.55176699      -0.00000000       90.2604675      -1.57077897    
   0.00000000       0.00000000       0.00000000       90.2604675      -1.57077897    
  -1.00436401      -1.61872697      -0.00000000       90.2604675      -1.57077897    
   0.00000000       0.00000000       0.00000000       91.0763779      -1.57077932    
  -1.10500801      -1.55176699      -0.00000000       91.0763779      -1.57077932    
  -1.15368605      -1.51592600      -0.00000000       91.0763779      -1.57077932    
  -1.20120299      -1.47855902      -0.00000000       91.0763779      -1.57077932    
 -0.952499986      -1.64977801      -0.00000000       89.5339890      -1.57077873    
  -1.00436401      -1.61872697      -0.00000000       89.5339890      -1.57077873    
   0.00000000       0.00000000       0.00000000       89.5339890      -1.57077873    
 -0.899676025      -1.67916906      -0.00000000       89.5339890      -1.57077873    
 -0.735987008      -1.75708497      -0.00000000       88.7344742      -1.57077825    
 -0.791365981      -1.73284900      -0.00000000       88.7344742      -1.57077825    
   0.00000000       0.00000000       0.00000000       88.7344742      -1.57077825    
 -0.679867983      -1.77955198      -0.00000000       88.7344742      -1.57077825    
   0.00000000       0.00000000       0.00000000       89.0016785      -1.57077837    
 -0.791365981      -1.73284900      -0.00000000       89.0016785      -1.57077837    
 -0.845947027      -1.70686805      -0.00000000       89.0016785      -1.57077837    
 -0.899676025      -1.67916906      -0.00000000       89.0016785      -1.57077837    
 -0.623063982      -1.80022705      -0.00000000       88.7217178      -1.57077813    
 -0.679867983      -1.77955198      -0.00000000       88.7217178      -1.57077813    
   0.00000000       0.00000000       0.00000000       88.7217178      -1.57077813    
 -0.565632999      -1.81908906      -0.00000000       88.7217178      -1.57077813    
 -0.390157014      -1.86461902      -0.00000000       89.0730972      -1.57077801    
 -0.449120998      -1.85130095      -0.00000000       89.0730972      -1.57077801    
   0.00000000       0.00000000       0.00000000       89.0730972      -1.57077801    
 -0.330799997      -1.87605906      -0.00000000       89.0730972      -1.57077801    
   0.00000000       0.00000000       0.00000000       88.8666153      -1.57077801    
 -0.449120998      -1.85130095      -0.00000000       88.8666153      -1.57077801    
 -0.507632971      -1.83611906      -0.00000000       88.8666153      -1.57077801    
 -0.565632999      -1.81908906      -0.00000000       88.8666153      -1.57077801    
 -0.271109998      -1.88560998      -0.00000000       89.2797928      -1.57077801    
 -0.330799997      -1.87605906      -0.00000000       89.2797928      -1.57077801    
   0.00000000       0.00000000       0.00000000       89.2797928      -1.57077801    
 -0.211146995      -1.89326203      -0.00000000       89.2797928      -1.57077801    
  -3.02249994E-02  -1.90476000      -0.00000000       89.4821777      -1.57077801    
  -9.06440020E-02  -1.90284204      -0.00000000       89.4821777      -1.57077801    
   0.00000000       0.00000000       0.00000000       89.4821777      -1.57077801    
   3.02249994E-02  -1.90476000      -0.00000000       89.4821777      -1.57077801    
   0.00000000       0.00000000       0.00000000       89.4368668      -1.57077801    
  -9.06440020E-02  -1.90284204      -0.00000000       89.4368668      -1.57077801    
 -0.150970995      -1.89900804      -0.00000000       89.4368668      -1.57077801    
 -0.211146995      -1.89326203      -0.00000000       89.4368668      -1.57077801    
   9.06440020E-02  -1.90284204      -0.00000000       89.3831329      -1.57077801    
   3.02249994E-02  -1.90476000      -0.00000000       89.3831329      -1.57077801    
   0.00000000       0.00000000       0.00000000       89.3831329      -1.57077801    
  0.150970995      -1.89900804      -0.00000000       89.3831329      -1.57077801    
  0.330799997      -1.87605906      -0.00000000       88.8679581      -1.57077789    
  0.271109998      -1.88560998      -0.00000000       88.8679581      -1.57077789    
   0.00000000       0.00000000       0.00000000       88.8679581      -1.57077789    
  0.390157014      -1.86461902      -0.00000000       88.8679581      -1.57077789    
   0.00000000       0.00000000       0.00000000       89.1696701      -1.57077801    
  0.271109998      -1.88560998      -0.00000000       89.1696701      -1.57077801    
  0.211146995      -1.89326203      -0.00000000       89.1696701      -1.57077801    
  0.150970995      -1.89900804      -0.00000000       89.1696701      -1.57077801    
  0.449120998      -1.85130095      -0.00000000       88.5374985      -1.57077789    
  0.390157014      -1.86461902      -0.00000000       88.5374985      -1.57077789    
   0.00000000       0.00000000       0.00000000       88.5374985      -1.57077789    
  0.507632971      -1.83611906      -0.00000000       88.5374985      -1.57077789    
  0.679867983      -1.77955198      -0.00000000       87.9635620      -1.57077801    
  0.623063982      -1.80022705      -0.00000000       87.9635620      -1.57077801    
   0.00000000       0.00000000       0.00000000       87.9635620      -1.57077801    
  0.735987008      -1.75708497      -0.00000000       87.9635620      -1.57077801    
   0.00000000       0.00000000       0.00000000       88.2077637      -1.57077789    
  0.623063982      -1.80022705      -0.00000000       88.2077637      -1.57077789    
  0.565632999      -1.81908906      -0.00000000       88.2077637      -1.57077789    
  0.507632971      -1.83611906      -0.00000000       88.2077637      -1.57077789    
  0.791365981      -1.73284900      -0.00000000       87.9125214      -1.57077813    
  0.735987008      -1.75708497      -0.00000000       87.9125214      -1.57077813    
   0.00000000       0.00000000       0.00000000       87.9125214      -1.57077813    
  0.845947027      -1.70686805      -0.00000000       87.9125214      -1.57077813    
   1.00436401      -1.61872697      -0.00000000       88.3810196      -1.57077849    
  0.952499986      -1.64977801      -0.00000000       88.3810196      -1.57077849    
   0.00000000       0.00000000       0.00000000       88.3810196      -1.57077849    
   1.05521798      -1.58604598      -0.00000000       88.3810196      -1.57077849    
   0.00000000       0.00000000       0.00000000       88.0484238      -1.57077825    
  0.952499986      -1.64977801      -0.00000000       88.0484238      -1.57077825    
  0.899676025      -1.67916906      -0.00000000       88.0484238      -1.57077825    
  0.845947027      -1.70686805      -0.00000000       88.0484238      -1.57077825    
   1.10500801      -1.55176699      -0.00000000       88.8179932      -1.57077873    
   1.05521798      -1.58604598      -0.00000000       88.8179932      -1.57077873    
   0.00000000       0.00000000       0.00000000       88.8179932      -1.57077873    
   1.15368605      -1.51592600      -0.00000000       88.8179932      -1.57077873    
   1.29255998      -1.39939702      -0.00000000       89.1595993      -1.57077920    
   1.24750996      -1.43970299      -0.00000000       89.1595993      -1.57077920    
   0.00000000       0.00000000       0.00000000       89.1595993      -1.57077920    
   1.33631003      -1.35768199      -0.00000000       89.1595993      -1.57077920    
   0.00000000       0.00000000       0.00000000       89.2330322      -1.57077909    
   1.24750996      -1.43970299      -0.00000000       89.2330322      -1.57077909    
   1.20120299      -1.47855902      -0.00000000       89.2330322      -1.57077909    