 VARIABLES="X" "Y" "Z" "abs(p) (Pa)" "angle(p) (rad)"
ZONE N=    802,E =     800, F=FEPOINT, ET=QUADRILATERAL
   1.90499997       0.00000000      -0.00000000       2.68104362       1.88455987    
   1.90404105      -6.04420006E-02  -0.00000000       2.68104362       1.88455987    
   0.00000000       0.00000000       0.00000000       2.68104362       1.88455987    
   1.90404105       6.04420006E-02  -0.00000000       2.68104362       1.88455987    
   1.88967395      0.241159007      -0.00000000       2.69751811       1.88233387    
   1.89637399      0.181081995      -0.00000000       2.69751811       1.88233387    
   0.00000000       0.00000000       0.00000000       2.69751811       1.88233387    
   1.88107097      0.300992996      -0.00000000       2.69751811       1.88233387    
   0.00000000       0.00000000       0.00000000       2.68550658       1.88396072    
   1.89637399      0.181081995      -0.00000000       2.68550658       1.88396072    
   1.90116501      0.120823003      -0.00000000       2.68550658       1.88396072    
   1.90404105       6.04420006E-02  -0.00000000       2.68550658       1.88396072    
   1.87057400      0.360523999      -0.00000000       2.72023535       1.87929857    
   1.88107097      0.300992996      -0.00000000       2.72023535       1.87929857    
   0.00000000       0.00000000       0.00000000       2.72023535       1.87929857    
   1.85819399      0.419692010      -0.00000000       2.72023535       1.87929857    
   1.80988598      0.594424009      -0.00000000       2.82399535       1.86621678    
   1.82783401      0.536701024      -0.00000000       2.82399535       1.86621678    
   0.00000000       0.00000000       0.00000000       2.82399535       1.86621678    
   1.79011405      0.651548028      -0.00000000       2.82399535       1.86621678    
   0.00000000       0.00000000       0.00000000       2.76026797       1.87411857    
   1.82783401      0.536701024      -0.00000000       2.76026797       1.87411857    
   1.84394205      0.478437006      -0.00000000       2.76026797       1.87411857    
   1.85819399      0.419692010      -0.00000000       2.76026797       1.87411857    
   1.76854098      0.708016992      -0.00000000       2.91337204       1.85573268    
   1.79011405      0.651548028      -0.00000000       2.91337204       1.85573268    
   0.00000000       0.00000000       0.00000000       2.91337204       1.85573268    
   1.74518704      0.763773024      -0.00000000       2.91337204       1.85573268    
   1.66468298      0.926204979      -0.00000000       3.18244410       1.82764304    
   1.69323206      0.872922003      -0.00000000       3.18244410       1.82764304    
   0.00000000       0.00000000       0.00000000       3.18244410       1.82764304    
   1.63445795      0.978555024      -0.00000000       3.18244410       1.82764304    
   0.00000000       0.00000000       0.00000000       3.03285909       1.84265947    
   1.69323206      0.872922003      -0.00000000       3.03285909       1.84265947    
   1.72007501      0.818759024      -0.00000000       3.03285909       1.84265947    
   1.74518704      0.763773024      -0.00000000       3.03285909       1.84265947    
   1.60258806       1.02992105      -0.00000000       3.35612965       1.81178880    
   1.63445795      0.978555024      -0.00000000       3.35612965       1.81178880    
   0.00000000       0.00000000       0.00000000       3.35612965       1.81178880    
   1.56910396       1.08024895      -0.00000000       3.35612965       1.81178880    
   1.45931494       1.22450995      -0.00000000       3.70155168       1.78403246    
   1.49743104       1.17759299      -0.00000000       3.70155168       1.78403246    
   0.00000000       0.00000000       0.00000000       3.70155168       1.78403246    
   1.41972899       1.27019501      -0.00000000       3.70155168       1.78403246    
   0.00000000       0.00000000       0.00000000       3.53735900       1.79670501    
   1.49743104       1.17759299      -0.00000000       3.53735900       1.79670501    
   1.53403997       1.12949002      -0.00000000       3.53735900       1.79670501    
   1.56910396       1.08024895      -0.00000000       3.53735900       1.79670501    
   1.37871301       1.31459999      -0.00000000       3.77762485       1.77834463    
   1.41972899       1.27019501      -0.00000000       3.77762485       1.77834463    
   0.00000000       0.00000000       0.00000000       3.77762485       1.77834463    
   1.33631003       1.35768199      -0.00000000       3.77762485       1.77834463    
   1.20120299       1.47855902      -0.00000000       3.50170779       1.79917455    
   1.24750996       1.43970299      -0.00000000       3.50170779       1.79917455    
   0.00000000       0.00000000       0.00000000       3.50170779       1.79917455    
   1.15368605       1.51592600      -0.00000000       3.50170779       1.79917455    
   0.00000000       0.00000000       0.00000000       3.68400073       1.78508830    
   1.24750996       1.43970299      -0.00000000       3.68400073       1.78508830    
   1.29255998       1.39939702      -0.00000000       3.68400073       1.78508830    
   1.33631003       1.35768199      -0.00000000       3.68400073       1.78508830    
   1.10500801       1.55176699      -0.00000000       3.30763745       1.81562352    
   1.15368605       1.51592600      -0.00000000       3.30763745       1.81562352    
   0.00000000       0.00000000       0.00000000       3.30763745       1.81562352    
   1.05521798       1.58604598      -0.00000000       3.30763745       1.81562352    
  0.899676025       1.67916906      -0.00000000       2.97875667       1.84806371    
  0.952499986       1.64977801      -0.00000000       2.97875667       1.84806371    
   0.00000000       0.00000000       0.00000000       2.97875667       1.84806371    
  0.845947027       1.70686805      -0.00000000       2.97875667       1.84806371    
   0.00000000       0.00000000       0.00000000       3.12794018       1.83252752    
  0.952499986       1.64977801      -0.00000000       3.12794018       1.83252752    
   1.00436401       1.61872697      -0.00000000       3.12794018       1.83252752    
   1.05521798       1.58604598      -0.00000000       3.12794018       1.83252752    
  0.791365981       1.73284900      -0.00000000       2.86056089       1.86151791    
  0.845947027       1.70686805      -0.00000000       2.86056089       1.86151791    
   0.00000000       0.00000000       0.00000000       2.86056089       1.86151791    
  0.735987008       1.75708497      -0.00000000       2.86056089       1.86151791    
  0.565632999       1.81908906      -0.00000000       2.71081185       1.88027883    
  0.623063982       1.80022705      -0.00000000       2.71081185       1.88027883    
   0.00000000       0.00000000       0.00000000       2.71081185       1.88027883    
  0.507632971       1.83611906      -0.00000000       2.71081185       1.88027883    
   0.00000000       0.00000000       0.00000000       2.77247071       1.87229097    
  0.623063982       1.80022705      -0.00000000       2.77247071       1.87229097    
  0.679867983       1.77955198      -0.00000000       2.77247071       1.87229097    
  0.735987008       1.75708497      -0.00000000       2.77247071       1.87229097    
  0.449120998       1.85130095      -0.00000000       2.67039275       1.88575172    
  0.507632971       1.83611906      -0.00000000       2.67039275       1.88575172    
   0.00000000       0.00000000       0.00000000       2.67039275       1.88575172    
  0.390157014       1.86461902      -0.00000000       2.67039275       1.88575172    
  0.211146995       1.89326203      -0.00000000       2.63132787       1.89126432    
  0.271109998       1.88560998      -0.00000000       2.63132787       1.89126432    
   0.00000000       0.00000000       0.00000000       2.63132787       1.89126432    
  0.150970995       1.89900804      -0.00000000       2.63132787       1.89126432    
   0.00000000       0.00000000       0.00000000       2.64560485       1.88921905    
  0.271109998       1.88560998      -0.00000000       2.64560485       1.88921905    
  0.330799997       1.87605906      -0.00000000       2.64560485       1.88921905    
  0.390157014       1.86461902      -0.00000000       2.64560485       1.88921905    
   9.06440020E-02   1.90284204      -0.00000000       2.62577105       1.89207113    
  0.150970995       1.89900804      -0.00000000       2.62577105       1.89207113    
   0.00000000       0.00000000       0.00000000       2.62577105       1.89207113    
   3.02249994E-02   1.90476000      -0.00000000       2.62577105       1.89207113    
 -0.150970995       1.89900804      -0.00000000       2.63229895       1.89111829    
  -9.06440020E-02   1.90284204      -0.00000000       2.63229895       1.89111829    
   0.00000000       0.00000000       0.00000000       2.63229895       1.89111829    
 -0.211146995       1.89326203      -0.00000000       2.63229895       1.89111829    
   0.00000000       0.00000000       0.00000000       2.62575507       1.89206624    
  -9.06440020E-02   1.90284204      -0.00000000       2.62575507       1.89206624    
  -3.02249994E-02   1.90476000      -0.00000000       2.62575507       1.89206624    
   3.02249994E-02   1.90476000      -0.00000000       2.62575507       1.89206624    
 -0.271109998       1.88560998      -0.00000000       2.64787555       1.88889074    
 -0.211146995       1.89326203      -0.00000000       2.64787555       1.88889074    
   0.00000000       0.00000000       0.00000000       2.64787555       1.88889074    
 -0.330799997       1.87605906      -0.00000000       2.64787555       1.88889074    
 -0.507632971       1.83611906      -0.00000000       2.72090602       1.87897861    
 -0.449120998       1.85130095      -0.00000000       2.72090602       1.87897861    
   0.00000000       0.00000000       0.00000000       2.72090602       1.87897861    
 -0.565632999       1.81908906      -0.00000000       2.72090602       1.87897861    
   0.00000000       0.00000000       0.00000000       2.67585206       1.88500786    
 -0.449120998       1.85130095      -0.00000000       2.67585206       1.88500786    
 -0.390157014       1.86461902      -0.00000000       2.67585206       1.88500786    
 -0.330799997       1.87605906      -0.00000000       2.67585206       1.88500786    
 -0.623063982       1.80022705      -0.00000000       2.78917933       1.87027538    
 -0.565632999       1.81908906      -0.00000000       2.78917933       1.87027538    
   0.00000000       0.00000000       0.00000000       2.78917933       1.87027538    
 -0.679867983       1.77955198      -0.00000000       2.78917933       1.87027538    
 -0.845947027       1.70686805      -0.00000000       3.00586629       1.84530938    
 -0.791365981       1.73284900      -0.00000000       3.00586629       1.84530938    
   0.00000000       0.00000000       0.00000000       3.00586629       1.84530938    
 -0.899676025       1.67916906      -0.00000000       3.00586629       1.84530938    
   0.00000000       0.00000000       0.00000000       2.88279200       1.85903108    
 -0.791365981       1.73284900      -0.00000000       2.88279200       1.85903108    
 -0.735987008       1.75708497      -0.00000000       2.88279200       1.85903108    
 -0.679867983       1.77955198      -0.00000000       2.88279200       1.85903108    
 -0.952499986       1.64977801      -0.00000000       3.15886068       1.82973015    
 -0.899676025       1.67916906      -0.00000000       3.15886068       1.82973015    
   0.00000000       0.00000000       0.00000000       3.15886068       1.82973015    
  -1.00436401       1.61872697      -0.00000000       3.15886068       1.82973015    
  -1.15368605       1.51592600      -0.00000000       3.51861215       1.79804242    
  -1.10500801       1.55176699      -0.00000000       3.51861215       1.79804242    
   0.00000000       0.00000000       0.00000000       3.51861215       1.79804242    
  -1.20120299       1.47855902      -0.00000000       3.51861215       1.79804242    
   0.00000000       0.00000000       0.00000000       3.33543634       1.81342661    
  -1.10500801       1.55176699      -0.00000000       3.33543634       1.81342661    
  -1.05521798       1.58604598      -0.00000000       3.33543634       1.81342661    
  -1.00436401       1.61872697      -0.00000000       3.33543634       1.81342661    
  -1.24750996       1.43970299      -0.00000000       3.68418121       1.78517580    
  -1.20120299       1.47855902      -0.00000000       3.68418121       1.78517580    
   0.00000000       0.00000000       0.00000000       3.68418121       1.78517580    
  -1.29255998       1.39939702      -0.00000000       3.68418121       1.78517580    
  -1.41972899       1.27019501      -0.00000000       3.66848612       1.78611493    
  -1.37871301       1.31459999      -0.00000000       3.66848612       1.78611493    
   0.00000000       0.00000000       0.00000000       3.66848612       1.78611493    
  -1.45931494       1.22450995      -0.00000000       3.66848612       1.78611493    
   0.00000000       0.00000000       0.00000000       3.76112294       1.77939129    
  -1.37871301       1.31459999      -0.00000000       3.76112294       1.77939129    
  -1.33631003       1.35768199      -0.00000000       3.76112294       1.77939129    
  -1.29255998       1.39939702      -0.00000000       3.76112294       1.77939129    
  -1.49743104       1.17759299      -0.00000000       3.48755336       1.80018580    
  -1.45931494       1.22450995      -0.00000000       3.48755336       1.80018580    
   0.00000000       0.00000000       0.00000000       3.48755336       1.80018580    
  -1.53403997       1.12949002      -0.00000000       3.48755336       1.80018580    
  -1.63445795      0.978555024      -0.00000000       3.11672068       1.83347487    
  -1.60258806       1.02992105      -0.00000000       3.11672068       1.83347487    
   0.00000000       0.00000000       0.00000000       3.11672068       1.83347487    
  -1.66468298      0.926204979      -0.00000000       3.11672068       1.83347487    
   0.00000000       0.00000000       0.00000000       3.29483700       1.81662095    
  -1.60258806       1.02992105      -0.00000000       3.29483700       1.81662095    
  -1.56910396       1.08024895      -0.00000000       3.29483700       1.81662095    
  -1.53403997       1.12949002      -0.00000000       3.29483700       1.81662095    
  -1.69323206      0.872922003      -0.00000000       2.96891451       1.84895635    
  -1.66468298      0.926204979      -0.00000000       2.96891451       1.84895635    
   0.00000000       0.00000000       0.00000000       2.96891451       1.84895635    
  -1.72007501      0.818759024      -0.00000000       2.96891451       1.84895635    
  -1.79011405      0.651548028      -0.00000000       2.76435137       1.87310374    
  -1.76854098      0.708016992      -0.00000000       2.76435137       1.87310374    
   0.00000000       0.00000000       0.00000000       2.76435137       1.87310374    
  -1.80988598      0.594424009      -0.00000000       2.76435137       1.87310374    
   0.00000000       0.00000000       0.00000000       2.85167980       1.86236763    
  -1.76854098      0.708016992      -0.00000000       2.85167980       1.86236763    
  -1.74518704      0.763773024      -0.00000000       2.85167980       1.86236763    
  -1.72007501      0.818759024      -0.00000000       2.85167980       1.86236763    
  -1.82783401      0.536701024      -0.00000000       2.70334125       1.88104415    
  -1.80988598      0.594424009      -0.00000000       2.70334125       1.88104415    
   0.00000000       0.00000000       0.00000000       2.70334125       1.88104415    
  -1.84394205      0.478437006      -0.00000000       2.70334125       1.88104415    
  -1.88107097      0.300992996      -0.00000000       2.63914037       1.88989305    
  -1.87057400      0.360523999      -0.00000000       2.63914037       1.88989305    
   0.00000000       0.00000000       0.00000000       2.63914037       1.88989305    
  -1.88967395      0.241159007      -0.00000000       2.63914037       1.88989305    
   0.00000000       0.00000000       0.00000000       2.66348076       1.88646746    
  -1.87057400      0.360523999      -0.00000000       2.66348076       1.88646746    
  -1.85819399      0.419692010      -0.00000000       2.66348076       1.88646746    
  -1.84394205      0.478437006      -0.00000000       2.66348076       1.88646746    
  -1.89637399      0.181081995      -0.00000000       2.62526965       1.89189744    
  -1.88967395      0.241159007      -0.00000000       2.62526965       1.89189744    
   0.00000000       0.00000000       0.00000000       2.62526965       1.89189744    
  -1.90116501      0.120823003      -0.00000000       2.62526965       1.89189744    
  -1.90404105      -6.04420006E-02  -0.00000000       2.62024236       1.89263833    
  -1.90499997       0.00000000      -0.00000000       2.62024236       1.89263833    
   0.00000000       0.00000000       0.00000000       2.62024236       1.89263833    
  -1.90116501     -0.120823003      -0.00000000       2.62024236       1.89263833    
   0.00000000       0.00000000       0.00000000       2.62000346       1.89267421    
  -1.90499997       0.00000000      -0.00000000       2.62000346       1.89267421    
  -1.90404105       6.04420006E-02  -0.00000000       2.62000346       1.89267421    
  -1.90116501      0.120823003      -0.00000000       2.62000346       1.89267421    
  -1.89637399     -0.181081995      -0.00000000       2.62710834       1.89165509    
  -1.90116501     -0.120823003      -0.00000000       2.62710834       1.89165509    
   0.00000000       0.00000000       0.00000000       2.62710834       1.89165509    
  -1.88967395     -0.241159007      -0.00000000       2.62710834       1.89165509    
  -1.85819399     -0.419692010      -0.00000000       2.67157149       1.88542414    
  -1.87057400     -0.360523999      -0.00000000       2.67157149       1.88542414    
   0.00000000       0.00000000       0.00000000       2.67157149       1.88542414    
  -1.84394205     -0.478437006      -0.00000000       2.67157149       1.88542414    
   0.00000000       0.00000000       0.00000000       2.64309502       1.88937414    
  -1.87057400     -0.360523999      -0.00000000       2.64309502       1.88937414    
  -1.88107097     -0.300992996      -0.00000000       2.64309502       1.88937414    
  -1.88967395     -0.241159007      -0.00000000       2.64309502       1.88937414    
  -1.82783401     -0.536701024      -0.00000000       2.71720076       1.87932014    
  -1.84394205     -0.478437006      -0.00000000       2.71720076       1.87932014    
   0.00000000       0.00000000       0.00000000       2.71720076       1.87932014    
  -1.80988598     -0.594424009      -0.00000000       2.71720076       1.87932014    
  -1.74518704     -0.763773024      -0.00000000       2.88032293       1.85921562    
  -1.76854098     -0.708016992      -0.00000000       2.88032293       1.85921562    
   0.00000000       0.00000000       0.00000000       2.88032293       1.85921562    
  -1.72007501     -0.818759024      -0.00000000       2.88032293       1.85921562    
   0.00000000       0.00000000       0.00000000       2.78608012       1.87053680    
  -1.76854098     -0.708016992      -0.00000000       2.78608012       1.87053680    
  -1.79011405     -0.651548028      -0.00000000       2.78608012       1.87053680    
  -1.80988598     -0.594424009      -0.00000000       2.78608012       1.87053680    
  -1.69323206     -0.872922003      -0.00000000       3.00409365       1.84542024    
  -1.72007501     -0.818759024      -0.00000000       3.00409365       1.84542024    
   0.00000000       0.00000000       0.00000000       3.00409365       1.84542024    
  -1.66468298     -0.926204979      -0.00000000       3.00409365       1.84542024    
  -1.56910396      -1.08024895      -0.00000000       3.33528662       1.81340539    
  -1.60258806      -1.02992105      -0.00000000       3.33528662       1.81340539    
   0.00000000       0.00000000       0.00000000       3.33528662       1.81340539    
  -1.53403997      -1.12949002      -0.00000000       3.33528662       1.81340539    
   0.00000000       0.00000000       0.00000000       3.15786195       1.82976699    
  -1.60258806      -1.02992105      -0.00000000       3.15786195       1.82976699    
  -1.63445795     -0.978555024      -0.00000000       3.15786195       1.82976699    
  -1.66468298     -0.926204979      -0.00000000       3.15786195       1.82976699    
  -1.49743104      -1.17759299      -0.00000000       3.51939440       1.79796612    
  -1.53403997      -1.12949002      -0.00000000       3.51939440       1.79796612    
   0.00000000       0.00000000       0.00000000       3.51939440       1.79796612    
  -1.45931494      -1.22450995      -0.00000000       3.51939440       1.79796612    
  -1.33631003      -1.35768199      -0.00000000       3.76303577       1.77928185    
  -1.37871301      -1.31459999      -0.00000000       3.76303577       1.77928185    
   0.00000000       0.00000000       0.00000000       3.76303577       1.77928185    
  -1.29255998      -1.39939702      -0.00000000       3.76303577       1.77928185    
   0.00000000       0.00000000       0.00000000       3.68578672       1.78506100    
  -1.37871301      -1.31459999      -0.00000000       3.68578672       1.78506100    
  -1.41972899      -1.27019501      -0.00000000       3.68578672       1.78506100    
  -1.45931494      -1.22450995      -0.00000000       3.68578672       1.78506100    
  -1.24750996      -1.43970299      -0.00000000       3.67044210       1.78600740    
  -1.29255998      -1.39939702      -0.00000000       3.67044210       1.78600740    
   0.00000000       0.00000000       0.00000000       3.67044210       1.78600740    
  -1.20120299      -1.47855902      -0.00000000       3.67044210       1.78600740    
  -1.05521798      -1.58604598      -0.00000000       3.29748535       1.81643915    
  -1.10500801      -1.55176699      -0.00000000       3.29748535       1.81643915    
   0.00000000       0.00000000       0.00000000       3.29748535       1.81643915    
  -1.00436401      -1.61872697      -0.00000000       3.29748535       1.81643915    
   0.00000000       0.00000000       0.00000000       3.48985553       1.80004811    
  -1.10500801      -1.55176699      -0.00000000       3.48985553       1.80004811    
  -1.15368605      -1.51592600      -0.00000000       3.48985553       1.80004811    
  -1.20120299      -1.47855902      -0.00000000       3.48985553       1.80004811    
 -0.952499986      -1.64977801      -0.00000000       3.11966944       1.83325219    
  -1.00436401      -1.61872697      -0.00000000       3.11966944       1.83325219    
   0.00000000       0.00000000       0.00000000       3.11966944       1.83325219    
 -0.899676025      -1.67916906      -0.00000000       3.11966944       1.83325219    
 -0.735987008      -1.75708497      -0.00000000       2.85508823       1.86206138    
 -0.791365981      -1.73284900      -0.00000000       2.85508823       1.86206138    
   0.00000000       0.00000000       0.00000000       2.85508823       1.86206138    
 -0.679867983      -1.77955198      -0.00000000       2.85508823       1.86206138    
   0.00000000       0.00000000       0.00000000       2.97210073       1.84868562    
 -0.791365981      -1.73284900      -0.00000000       2.97210073       1.84868562    
 -0.845947027      -1.70686805      -0.00000000       2.97210073       1.84868562    
 -0.899676025      -1.67916906      -0.00000000       2.97210073       1.84868562    
 -0.623063982      -1.80022705      -0.00000000       2.76798129       1.87275481    
 -0.679867983      -1.77955198      -0.00000000       2.76798129       1.87275481    
   0.00000000       0.00000000       0.00000000       2.76798129       1.87275481    
 -0.565632999      -1.81908906      -0.00000000       2.76798129       1.87275481    
 -0.390157014      -1.86461902      -0.00000000       2.66750336       1.88605368    
 -0.449120998      -1.85130095      -0.00000000       2.66750336       1.88605368    
   0.00000000       0.00000000       0.00000000       2.66750336       1.88605368    
 -0.330799997      -1.87605906      -0.00000000       2.66750336       1.88605368    
   0.00000000       0.00000000       0.00000000       2.70719624       1.88065910    
 -0.449120998      -1.85130095      -0.00000000       2.70719624       1.88065910    
 -0.507632971      -1.83611906      -0.00000000       2.70719624       1.88065910    
 -0.565632999      -1.81908906      -0.00000000       2.70719624       1.88065910    
 -0.271109998      -1.88560998      -0.00000000       2.64327383       1.88946497    
 -0.330799997      -1.87605906      -0.00000000       2.64327383       1.88946497    
   0.00000000       0.00000000       0.00000000       2.64327383       1.88946497    
 -0.211146995      -1.89326203      -0.00000000       2.64327383       1.88946497    
  -3.02249994E-02  -1.90476000      -0.00000000       2.62405300       1.89225912    
  -9.06440020E-02  -1.90284204      -0.00000000       2.62405300       1.89225912    
   0.00000000       0.00000000       0.00000000       2.62405300       1.89225912    
   3.02249994E-02  -1.90476000      -0.00000000       2.62405300       1.89225912    
   0.00000000       0.00000000       0.00000000       2.62940073       1.89146912    
  -9.06440020E-02  -1.90284204      -0.00000000       2.62940073       1.89146912    
 -0.150970995      -1.89900804      -0.00000000       2.62940073       1.89146912    
 -0.211146995      -1.89326203      -0.00000000       2.62940073       1.89146912    
   9.06440020E-02  -1.90284204      -0.00000000       2.62419701       1.89224684    
   3.02249994E-02  -1.90476000      -0.00000000       2.62419701       1.89224684    
   0.00000000       0.00000000       0.00000000       2.62419701       1.89224684    
  0.150970995      -1.89900804      -0.00000000       2.62419701       1.89224684    
  0.330799997      -1.87605906      -0.00000000       2.64704585       1.88899219    
  0.271109998      -1.88560998      -0.00000000       2.64704585       1.88899219    
   0.00000000       0.00000000       0.00000000       2.64704585       1.88899219    
  0.390157014      -1.86461902      -0.00000000       2.64704585       1.88899219    
   0.00000000       0.00000000       0.00000000       2.63100219       1.89127243    
  0.271109998      -1.88560998      -0.00000000       2.63100219       1.89127243    
  0.211146995      -1.89326203      -0.00000000       2.63100219       1.89127243    
  0.150970995      -1.89900804      -0.00000000       2.63100219       1.89127243    
  0.449120998      -1.85130095      -0.00000000       2.67563295       1.88503683    
  0.390157014      -1.86461902      -0.00000000       2.67563295       1.88503683    
   0.00000000       0.00000000       0.00000000       2.67563295       1.88503683    
  0.507632971      -1.83611906      -0.00000000       2.67563295       1.88503683    
  0.679867983      -1.77955198      -0.00000000       2.79044843       1.87012935    
  0.623063982      -1.80022705      -0.00000000       2.79044843       1.87012935    
   0.00000000       0.00000000       0.00000000       2.79044843       1.87012935    
  0.735987008      -1.75708497      -0.00000000       2.79044843       1.87012935    
   0.00000000       0.00000000       0.00000000       2.72142196       1.87892246    
  0.623063982      -1.80022705      -0.00000000       2.72142196       1.87892246    
  0.565632999      -1.81908906      -0.00000000       2.72142196       1.87892246    
  0.507632971      -1.83611906      -0.00000000       2.72142196       1.87892246    
  0.791365981      -1.73284900      -0.00000000       2.88481569       1.85880864    
  0.735987008      -1.75708497      -0.00000000       2.88481569       1.85880864    
   0.00000000       0.00000000       0.00000000       2.88481569       1.85880864    
  0.845947027      -1.70686805      -0.00000000       2.88481569       1.85880864    
   1.00436401      -1.61872697      -0.00000000       3.16313219       1.82931828    
  0.952499986      -1.64977801      -0.00000000       3.16313219       1.82931828    
   0.00000000       0.00000000       0.00000000       3.16313219       1.82931828    
   1.05521798      -1.58604598      -0.00000000       3.16313219       1.82931828    
   0.00000000       0.00000000       0.00000000       3.00886869       1.84500062    
  0.952499986      -1.64977801      -0.00000000       3.00886869       1.84500062    
  0.899676025      -1.67916906      -0.00000000       3.00886869       1.84500062    
  0.845947027      -1.70686805      -0.00000000       3.00886869       1.84500062    
   1.10500801      -1.55176699      -0.00000000       3.34063745       1.81296074    
   1.05521798      -1.58604598      -0.00000000       3.34063745       1.81296074    
   0.00000000       0.00000000       0.00000000       3.34063745       1.81296074    
   1.15368605      -1.51592600      -0.00000000       3.34063745       1.81296074    
   1.29255998      -1.39939702      -0.00000000       3.69155359       1.78459954    
   1.24750996      -1.43970299      -0.00000000       3.69155359       1.78459954    
   0.00000000       0.00000000       0.00000000       3.69155359       1.78459954    
   1.33631003      -1.35768199      -0.00000000       3.69155359       1.78459954    
   0.00000000       0.00000000       0.00000000       3.52485967       1.79752159    
   1.24750996      -1.43970299      -0.00000000       3.52485967       1.79752159    
   1.20120299      -1.47855902      -0.00000000       3.52485967       1.79752159    