 VARIABLES="X" "Y" "Z" "abs(p) (Pa)" "angle(p) (rad)"
ZONE N=    802,E =     800, F=FEPOINT, ET=QUADRILATERAL
   1.90499997       0.00000000      -0.00000000       1.24375463       1.52287197    
   1.90404105      -6.04420006E-02  -0.00000000       1.24375463       1.52287197    
   0.00000000       0.00000000       0.00000000       1.24375463       1.52287197    
   1.90404105       6.04420006E-02  -0.00000000       1.24375463       1.52287197    
   1.88967395      0.241159007      -0.00000000       67.9355164       1.58094215    
   1.89637399      0.181081995      -0.00000000       67.9355164       1.58094215    
   0.00000000       0.00000000       0.00000000       67.9355164       1.58094215    
   1.88107097      0.300992996      -0.00000000       67.9355164       1.58094215    
   0.00000000       0.00000000       0.00000000       34.4685631       1.58006585    
   1.89637399      0.181081995      -0.00000000       34.4685631       1.58006585    
   1.90116501      0.120823003      -0.00000000       34.4685631       1.58006585    
   1.90404105       6.04420006E-02  -0.00000000       34.4685631       1.58006585    
   1.87057400      0.360523999      -0.00000000       101.887993       1.58102584    
   1.88107097      0.300992996      -0.00000000       101.887993       1.58102584    
   0.00000000       0.00000000       0.00000000       101.887993       1.58102584    
   1.85819399      0.419692010      -0.00000000       101.887993       1.58102584    
   1.80988598      0.594424009      -0.00000000       172.861023       1.58027244    
   1.82783401      0.536701024      -0.00000000       172.861023       1.58027244    
   0.00000000       0.00000000       0.00000000       172.861023       1.58027244    
   1.79011405      0.651548028      -0.00000000       172.861023       1.58027244    
   0.00000000       0.00000000       0.00000000       136.832748       1.58074331    
   1.82783401      0.536701024      -0.00000000       136.832748       1.58074331    
   1.84394205      0.478437006      -0.00000000       136.832748       1.58074331    
   1.85819399      0.419692010      -0.00000000       136.832748       1.58074331    
   1.76854098      0.708016992      -0.00000000       210.532104       1.57958579    
   1.79011405      0.651548028      -0.00000000       210.532104       1.57958579    
   0.00000000       0.00000000       0.00000000       210.532104       1.57958579    
   1.74518704      0.763773024      -0.00000000       210.532104       1.57958579    
   1.66468298      0.926204979      -0.00000000       292.027832       1.57771528    
   1.69323206      0.872922003      -0.00000000       292.027832       1.57771528    
   0.00000000       0.00000000       0.00000000       292.027832       1.57771528    
   1.63445795      0.978555024      -0.00000000       292.027832       1.57771528    
   0.00000000       0.00000000       0.00000000       250.288086       1.57870960    
   1.69323206      0.872922003      -0.00000000       250.288086       1.57870960    
   1.72007501      0.818759024      -0.00000000       250.288086       1.57870960    
   1.74518704      0.763773024      -0.00000000       250.288086       1.57870960    
   1.60258806       1.02992105      -0.00000000       335.212616       1.57667446    
   1.63445795      0.978555024      -0.00000000       335.212616       1.57667446    
   0.00000000       0.00000000       0.00000000       335.212616       1.57667446    
   1.56910396       1.08024895      -0.00000000       335.212616       1.57667446    
   1.45931494       1.22450995      -0.00000000       419.903534       1.57487488    
   1.49743104       1.17759299      -0.00000000       419.903534       1.57487488    
   0.00000000       0.00000000       0.00000000       419.903534       1.57487488    
   1.41972899       1.27019501      -0.00000000       419.903534       1.57487488    
   0.00000000       0.00000000       0.00000000       378.677704       1.57567489    
   1.49743104       1.17759299      -0.00000000       378.677704       1.57567489    
   1.53403997       1.12949002      -0.00000000       378.677704       1.57567489    
   1.56910396       1.08024895      -0.00000000       378.677704       1.57567489    
   1.37871301       1.31459999      -0.00000000       449.980804       1.57487261    
   1.41972899       1.27019501      -0.00000000       449.980804       1.57487261    
   0.00000000       0.00000000       0.00000000       449.980804       1.57487261    
   1.33631003       1.35768199      -0.00000000       449.980804       1.57487261    
   1.20120299       1.47855902      -0.00000000       453.778046       1.57862008    
   1.24750996       1.43970299      -0.00000000       453.778046       1.57862008    
   0.00000000       0.00000000       0.00000000       453.778046       1.57862008    
   1.15368605       1.51592600      -0.00000000       453.778046       1.57862008    
   0.00000000       0.00000000       0.00000000       457.669922       1.57638657    
   1.24750996       1.43970299      -0.00000000       457.669922       1.57638657    
   1.29255998       1.39939702      -0.00000000       457.669922       1.57638657    
   1.33631003       1.35768199      -0.00000000       457.669922       1.57638657    
   1.10500801       1.55176699      -0.00000000       447.933563       1.58086872    
   1.15368605       1.51592600      -0.00000000       447.933563       1.58086872    
   0.00000000       0.00000000       0.00000000       447.933563       1.58086872    
   1.05521798       1.58604598      -0.00000000       447.933563       1.58086872    
  0.899676025       1.67916906      -0.00000000       439.046051       1.58472180    
  0.952499986       1.64977801      -0.00000000       439.046051       1.58472180    
   0.00000000       0.00000000       0.00000000       439.046051       1.58472180    
  0.845947027       1.70686805      -0.00000000       439.046051       1.58472180    
   0.00000000       0.00000000       0.00000000       442.663177       1.58293688    
  0.952499986       1.64977801      -0.00000000       442.663177       1.58293688    
   1.00436401       1.61872697      -0.00000000       442.663177       1.58293688    
   1.05521798       1.58604598      -0.00000000       442.663177       1.58293688    
  0.791365981       1.73284900      -0.00000000       437.384827       1.58617437    
  0.845947027       1.70686805      -0.00000000       437.384827       1.58617437    
   0.00000000       0.00000000       0.00000000       437.384827       1.58617437    
  0.735987008       1.75708497      -0.00000000       437.384827       1.58617437    
  0.565632999       1.81908906      -0.00000000       438.538849       1.58814001    
  0.623063982       1.80022705      -0.00000000       438.538849       1.58814001    
   0.00000000       0.00000000       0.00000000       438.538849       1.58814001    
  0.507632971       1.83611906      -0.00000000       438.538849       1.58814001    
   0.00000000       0.00000000       0.00000000       437.367981       1.58730459    
  0.623063982       1.80022705      -0.00000000       437.367981       1.58730459    
  0.679867983       1.77955198      -0.00000000       437.367981       1.58730459    
  0.735987008       1.75708497      -0.00000000       437.367981       1.58730459    
  0.449120998       1.85130095      -0.00000000       440.493164       1.58872545    
  0.507632971       1.83611906      -0.00000000       440.493164       1.58872545    
   0.00000000       0.00000000       0.00000000       440.493164       1.58872545    
  0.390157014       1.86461902      -0.00000000       440.493164       1.58872545    
  0.211146995       1.89326203      -0.00000000       444.449860       1.58934224    
  0.271109998       1.88560998      -0.00000000       444.449860       1.58934224    
   0.00000000       0.00000000       0.00000000       444.449860       1.58934224    
  0.150970995       1.89900804      -0.00000000       444.449860       1.58934224    
   0.00000000       0.00000000       0.00000000       442.664581       1.58910799    
  0.271109998       1.88560998      -0.00000000       442.664581       1.58910799    
  0.330799997       1.87605906      -0.00000000       442.664581       1.58910799    
  0.390157014       1.86461902      -0.00000000       442.664581       1.58910799    
   9.06440020E-02   1.90284204      -0.00000000       445.667114       1.58944869    
  0.150970995       1.89900804      -0.00000000       445.667114       1.58944869    
   0.00000000       0.00000000       0.00000000       445.667114       1.58944869    
   3.02249994E-02   1.90476000      -0.00000000       445.667114       1.58944869    
 -0.150970995       1.89900804      -0.00000000       446.375397       1.58928680    
  -9.06440020E-02   1.90284204      -0.00000000       446.375397       1.58928680    
   0.00000000       0.00000000       0.00000000       446.375397       1.58928680    
 -0.211146995       1.89326203      -0.00000000       446.375397       1.58928680    
   0.00000000       0.00000000       0.00000000       446.326324       1.58942866    
  -9.06440020E-02   1.90284204      -0.00000000       446.326324       1.58942866    
  -3.02249994E-02   1.90476000      -0.00000000       446.326324       1.58942866    
   3.02249994E-02   1.90476000      -0.00000000       446.326324       1.58942866    
 -0.271109998       1.88560998      -0.00000000       445.871429       1.58901644    
 -0.211146995       1.89326203      -0.00000000       445.871429       1.58901644    
   0.00000000       0.00000000       0.00000000       445.871429       1.58901644    
 -0.330799997       1.87605906      -0.00000000       445.871429       1.58901644    
 -0.507632971       1.83611906      -0.00000000       445.039185       1.58793139    
 -0.449120998       1.85130095      -0.00000000       445.039185       1.58793139    
   0.00000000       0.00000000       0.00000000       445.039185       1.58793139    
 -0.565632999       1.81908906      -0.00000000       445.039185       1.58793139    
   0.00000000       0.00000000       0.00000000       445.169312       1.58858645    
 -0.449120998       1.85130095      -0.00000000       445.169312       1.58858645    
 -0.390157014       1.86461902      -0.00000000       445.169312       1.58858645    
 -0.330799997       1.87605906      -0.00000000       445.169312       1.58858645    
 -0.623063982       1.80022705      -0.00000000       445.670959       1.58703470    
 -0.565632999       1.81908906      -0.00000000       445.670959       1.58703470    
   0.00000000       0.00000000       0.00000000       445.670959       1.58703470    
 -0.679867983       1.77955198      -0.00000000       445.670959       1.58703470    
 -0.845947027       1.70686805      -0.00000000       451.163269       1.58436418    
 -0.791365981       1.73284900      -0.00000000       451.163269       1.58436418    
   0.00000000       0.00000000       0.00000000       451.163269       1.58436418    
 -0.899676025       1.67916906      -0.00000000       451.163269       1.58436418    
   0.00000000       0.00000000       0.00000000       447.554871       1.58585596    
 -0.791365981       1.73284900      -0.00000000       447.554871       1.58585596    
 -0.735987008       1.75708497      -0.00000000       447.554871       1.58585596    
 -0.679867983       1.77955198      -0.00000000       447.554871       1.58585596    
 -0.952499986       1.64977801      -0.00000000       456.454010       1.58258390    
 -0.899676025       1.67916906      -0.00000000       456.454010       1.58258390    
   0.00000000       0.00000000       0.00000000       456.454010       1.58258390    
  -1.00436401       1.61872697      -0.00000000       456.454010       1.58258390    
  -1.15368605       1.51592600      -0.00000000       469.317169       1.57841480    
  -1.10500801       1.55176699      -0.00000000       469.317169       1.57841480    
   0.00000000       0.00000000       0.00000000       469.317169       1.57841480    
  -1.20120299       1.47855902      -0.00000000       469.317169       1.57841480    
   0.00000000       0.00000000       0.00000000       462.878906       1.58056843    
  -1.10500801       1.55176699      -0.00000000       462.878906       1.58056843    
  -1.05521798       1.58604598      -0.00000000       462.878906       1.58056843    
  -1.00436401       1.61872697      -0.00000000       462.878906       1.58056843    
  -1.24750996       1.43970299      -0.00000000       473.205383       1.57630444    
  -1.20120299       1.47855902      -0.00000000       473.205383       1.57630444    
   0.00000000       0.00000000       0.00000000       473.205383       1.57630444    
  -1.29255998       1.39939702      -0.00000000       473.205383       1.57630444    
  -1.41972899       1.27019501      -0.00000000       434.188232       1.57496059    
  -1.37871301       1.31459999      -0.00000000       434.188232       1.57496059    
   0.00000000       0.00000000       0.00000000       434.188232       1.57496059    
  -1.45931494       1.22450995      -0.00000000       434.188232       1.57496059    
   0.00000000       0.00000000       0.00000000       465.300385       1.57487571    
  -1.37871301       1.31459999      -0.00000000       465.300385       1.57487571    
  -1.33631003       1.35768199      -0.00000000       465.300385       1.57487571    
  -1.29255998       1.39939702      -0.00000000       465.300385       1.57487571    
  -1.49743104       1.17759299      -0.00000000       391.291809       1.57588911    
  -1.45931494       1.22450995      -0.00000000       391.291809       1.57588911    
   0.00000000       0.00000000       0.00000000       391.291809       1.57588911    
  -1.53403997       1.12949002      -0.00000000       391.291809       1.57588911    
  -1.63445795      0.978555024      -0.00000000       302.698029       1.57819283    
  -1.60258806       1.02992105      -0.00000000       302.698029       1.57819283    
   0.00000000       0.00000000       0.00000000       302.698029       1.57819283    
  -1.66468298      0.926204979      -0.00000000       302.698029       1.57819283    
   0.00000000       0.00000000       0.00000000       346.547882       1.57702363    
  -1.60258806       1.02992105      -0.00000000       346.547882       1.57702363    
  -1.56910396       1.08024895      -0.00000000       346.547882       1.57702363    
  -1.53403997       1.12949002      -0.00000000       346.547882       1.57702363    
  -1.69323206      0.872922003      -0.00000000       260.971680       1.57928073    
  -1.66468298      0.926204979      -0.00000000       260.971680       1.57928073    
   0.00000000       0.00000000       0.00000000       260.971680       1.57928073    
  -1.72007501      0.818759024      -0.00000000       260.971680       1.57928073    
  -1.79011405      0.651548028      -0.00000000       184.526947       1.58096731    
  -1.76854098      0.708016992      -0.00000000       184.526947       1.58096731    
   0.00000000       0.00000000       0.00000000       184.526947       1.58096731    
  -1.80988598      0.594424009      -0.00000000       184.526947       1.58096731    
   0.00000000       0.00000000       0.00000000       221.686935       1.58021593    
  -1.76854098      0.708016992      -0.00000000       221.686935       1.58021593    
  -1.74518704      0.763773024      -0.00000000       221.686935       1.58021593    
  -1.72007501      0.818759024      -0.00000000       221.686935       1.58021593    
  -1.82783401      0.536701024      -0.00000000       149.054901       1.58151436    
  -1.80988598      0.594424009      -0.00000000       149.054901       1.58151436    
   0.00000000       0.00000000       0.00000000       149.054901       1.58151436    
  -1.84394205      0.478437006      -0.00000000       149.054901       1.58151436    
  -1.88107097      0.300992996      -0.00000000       81.1385193       1.58206046    
  -1.87057400      0.360523999      -0.00000000       81.1385193       1.58206046    
   0.00000000       0.00000000       0.00000000       81.1385193       1.58206046    
  -1.88967395      0.241159007      -0.00000000       81.1385193       1.58206046    
   0.00000000       0.00000000       0.00000000       114.702202       1.58188295    
  -1.87057400      0.360523999      -0.00000000       114.702202       1.58188295    
  -1.85819399      0.419692010      -0.00000000       114.702202       1.58188295    
  -1.84394205      0.478437006      -0.00000000       114.702202       1.58188295    
  -1.89637399      0.181081995      -0.00000000       47.8810921       1.58208144    
  -1.88967395      0.241159007      -0.00000000       47.8810921       1.58208144    
   0.00000000       0.00000000       0.00000000       47.8810921       1.58208144    
  -1.90116501      0.120823003      -0.00000000       47.8810921       1.58208144    
  -1.90404105      -6.04420006E-02  -0.00000000       17.9967728      -1.55786014    
  -1.90499997       0.00000000      -0.00000000       17.9967728      -1.55786014    
   0.00000000       0.00000000       0.00000000       17.9967728      -1.55786014    
  -1.90116501     -0.120823003      -0.00000000       17.9967728      -1.55786014    
   0.00000000       0.00000000       0.00000000       14.9018660       1.58125746    
  -1.90499997       0.00000000      -0.00000000       14.9018660       1.58125746    
  -1.90404105       6.04420006E-02  -0.00000000       14.9018660       1.58125746    
  -1.90116501      0.120823003      -0.00000000       14.9018660       1.58125746    
  -1.89637399     -0.181081995      -0.00000000       51.0531044      -1.55874097    
  -1.90116501     -0.120823003      -0.00000000       51.0531044      -1.55874097    
   0.00000000       0.00000000       0.00000000       51.0531044      -1.55874097    
  -1.88967395     -0.241159007      -0.00000000       51.0531044      -1.55874097    
  -1.85819399     -0.419692010      -0.00000000       118.104103      -1.55944586    
  -1.87057400     -0.360523999      -0.00000000       118.104103      -1.55944586    
   0.00000000       0.00000000       0.00000000       118.104103      -1.55944586    
  -1.84394205     -0.478437006      -0.00000000       118.104103      -1.55944586    
   0.00000000       0.00000000       0.00000000       84.3848495      -1.55910265    
  -1.87057400     -0.360523999      -0.00000000       84.3848495      -1.55910265    
  -1.88107097     -0.300992996      -0.00000000       84.3848495      -1.55910265    
  -1.88967395     -0.241159007      -0.00000000       84.3848495      -1.55910265    
  -1.82783401     -0.536701024      -0.00000000       152.739334      -1.55993044    
  -1.84394205     -0.478437006      -0.00000000       152.739334      -1.55993044    
   0.00000000       0.00000000       0.00000000       152.739334      -1.55993044    
  -1.80988598     -0.594424009      -0.00000000       152.739334      -1.55993044    
  -1.74518704     -0.763773024      -0.00000000       226.029510      -1.56135380    
  -1.76854098     -0.708016992      -0.00000000       226.029510      -1.56135380    
   0.00000000       0.00000000       0.00000000       226.029510      -1.56135380    
  -1.72007501     -0.818759024      -0.00000000       226.029510      -1.56135380    
   0.00000000       0.00000000       0.00000000       188.516922      -1.56055093    
  -1.76854098     -0.708016992      -0.00000000       188.516922      -1.56055093    
  -1.79011405     -0.651548028      -0.00000000       188.516922      -1.56055093    
  -1.80988598     -0.594424009      -0.00000000       188.516922      -1.56055093    
  -1.69323206     -0.872922003      -0.00000000       265.690277      -1.56232381    
  -1.72007501     -0.818759024      -0.00000000       265.690277      -1.56232381    
   0.00000000       0.00000000       0.00000000       265.690277      -1.56232381    
  -1.66468298     -0.926204979      -0.00000000       265.690277      -1.56232381    
  -1.56910396      -1.08024895      -0.00000000       350.711151      -1.56453466    
  -1.60258806      -1.02992105      -0.00000000       350.711151      -1.56453466    
   0.00000000       0.00000000       0.00000000       350.711151      -1.56453466    
  -1.53403997      -1.12949002      -0.00000000       350.711151      -1.56453466    
   0.00000000       0.00000000       0.00000000       307.443726      -1.56340909    
  -1.60258806      -1.02992105      -0.00000000       307.443726      -1.56340909    
  -1.63445795     -0.978555024      -0.00000000       307.443726      -1.56340909    
  -1.66468298     -0.926204979      -0.00000000       307.443726      -1.56340909    
  -1.49743104      -1.17759299      -0.00000000       394.263153      -1.56560993    
  -1.53403997      -1.12949002      -0.00000000       394.263153      -1.56560993    
   0.00000000       0.00000000       0.00000000       394.263153      -1.56560993    
  -1.45931494      -1.22450995      -0.00000000       394.263153      -1.56560993    
  -1.33631003      -1.35768199      -0.00000000       465.244446      -1.56653380    
  -1.37871301      -1.31459999      -0.00000000       465.244446      -1.56653380    
   0.00000000       0.00000000       0.00000000       465.244446      -1.56653380    
  -1.29255998      -1.39939702      -0.00000000       465.244446      -1.56653380    
   0.00000000       0.00000000       0.00000000       435.546906      -1.56647837    
  -1.37871301      -1.31459999      -0.00000000       435.546906      -1.56647837    
  -1.41972899      -1.27019501      -0.00000000       435.546906      -1.56647837    
  -1.45931494      -1.22450995      -0.00000000       435.546906      -1.56647837    
  -1.24750996      -1.43970299      -0.00000000       471.849274      -1.56505442    
  -1.29255998      -1.39939702      -0.00000000       471.849274      -1.56505442    
   0.00000000       0.00000000       0.00000000       471.849274      -1.56505442    
  -1.20120299      -1.47855902      -0.00000000       471.849274      -1.56505442    
  -1.05521798      -1.58604598      -0.00000000       459.414856      -1.56062555    
  -1.10500801      -1.55176699      -0.00000000       459.414856      -1.56062555    
   0.00000000       0.00000000       0.00000000       459.414856      -1.56062555    
  -1.00436401      -1.61872697      -0.00000000       459.414856      -1.56062555    
   0.00000000       0.00000000       0.00000000       466.624390      -1.56285501    
  -1.10500801      -1.55176699      -0.00000000       466.624390      -1.56285501    
  -1.15368605      -1.51592600      -0.00000000       466.624390      -1.56285501    
  -1.20120299      -1.47855902      -0.00000000       466.624390      -1.56285501    
 -0.952499986      -1.64977801      -0.00000000       452.788666      -1.55856729    
  -1.00436401      -1.61872697      -0.00000000       452.788666      -1.55856729    
   0.00000000       0.00000000       0.00000000       452.788666      -1.55856729    
 -0.899676025      -1.67916906      -0.00000000       452.788666      -1.55856729    
 -0.735987008      -1.75708497      -0.00000000       444.948822      -1.55532300    
 -0.791365981      -1.73284900      -0.00000000       444.948822      -1.55532300    
   0.00000000       0.00000000       0.00000000       444.948822      -1.55532300    
 -0.679867983      -1.77955198      -0.00000000       444.948822      -1.55532300    
   0.00000000       0.00000000       0.00000000       447.871399      -1.55678391    
 -0.791365981      -1.73284900      -0.00000000       447.871399      -1.55678391    
 -0.845947027      -1.70686805      -0.00000000       447.871399      -1.55678391    
 -0.899676025      -1.67916906      -0.00000000       447.871399      -1.55678391    
 -0.623063982      -1.80022705      -0.00000000       443.718689      -1.55418146    
 -0.679867983      -1.77955198      -0.00000000       443.718689      -1.55418146    
   0.00000000       0.00000000       0.00000000       443.718689      -1.55418146    
 -0.565632999      -1.81908906      -0.00000000       443.718689      -1.55418146    
 -0.390157014      -1.86461902      -0.00000000       444.578217      -1.55272782    
 -0.449120998      -1.85130095      -0.00000000       444.578217      -1.55272782    
   0.00000000       0.00000000       0.00000000       444.578217      -1.55272782    
 -0.330799997      -1.87605906      -0.00000000       444.578217      -1.55272782    
   0.00000000       0.00000000       0.00000000       443.739227      -1.55333018    
 -0.449120998      -1.85130095      -0.00000000       443.739227      -1.55333018    
 -0.507632971      -1.83611906      -0.00000000       443.739227      -1.55333018    
 -0.565632999      -1.81908906      -0.00000000       443.739227      -1.55333018    
 -0.271109998      -1.88560998      -0.00000000       445.647980      -1.55232823    
 -0.330799997      -1.87605906      -0.00000000       445.647980      -1.55232823    
   0.00000000       0.00000000       0.00000000       445.647980      -1.55232823    
 -0.211146995      -1.89326203      -0.00000000       445.647980      -1.55232823    
  -3.02249994E-02  -1.90476000      -0.00000000       446.442749      -1.55194378    
  -9.06440020E-02  -1.90284204      -0.00000000       446.442749      -1.55194378    
   0.00000000       0.00000000       0.00000000       446.442749      -1.55194378    
   3.02249994E-02  -1.90476000      -0.00000000       446.442749      -1.55194378    
   0.00000000       0.00000000       0.00000000       446.331055      -1.55207348    
  -9.06440020E-02  -1.90284204      -0.00000000       446.331055      -1.55207348    
 -0.150970995      -1.89900804      -0.00000000       446.331055      -1.55207348    
 -0.211146995      -1.89326203      -0.00000000       446.331055      -1.55207348    
   9.06440020E-02  -1.90284204      -0.00000000       446.004883      -1.55194330    
   3.02249994E-02  -1.90476000      -0.00000000       446.004883      -1.55194330    
   0.00000000       0.00000000       0.00000000       446.004883      -1.55194330    
  0.150970995      -1.89900804      -0.00000000       446.004883      -1.55194330    
  0.330799997      -1.87605906      -0.00000000       443.354370      -1.55231011    
  0.271109998      -1.88560998      -0.00000000       443.354370      -1.55231011    
   0.00000000       0.00000000       0.00000000       443.354370      -1.55231011    
  0.390157014      -1.86461902      -0.00000000       443.354370      -1.55231011    
   0.00000000       0.00000000       0.00000000       444.951202      -1.55206168    
  0.271109998      -1.88560998      -0.00000000       444.951202      -1.55206168    
  0.211146995      -1.89326203      -0.00000000       444.951202      -1.55206168    
  0.150970995      -1.89900804      -0.00000000       444.951202      -1.55206168    
  0.449120998      -1.85130095      -0.00000000       441.561859      -1.55272293    
  0.390157014      -1.86461902      -0.00000000       441.561859      -1.55272293    
   0.00000000       0.00000000       0.00000000       441.561859      -1.55272293    
  0.507632971      -1.83611906      -0.00000000       441.561859      -1.55272293    
  0.679867983      -1.77955198      -0.00000000       439.796844      -1.55424333    
  0.623063982      -1.80022705      -0.00000000       439.796844      -1.55424333    
   0.00000000       0.00000000       0.00000000       439.796844      -1.55424333    
  0.735987008      -1.75708497      -0.00000000       439.796844      -1.55424333    
   0.00000000       0.00000000       0.00000000       440.324432      -1.55336189    
  0.623063982      -1.80022705      -0.00000000       440.324432      -1.55336189    
  0.565632999      -1.81908906      -0.00000000       440.324432      -1.55336189    
  0.507632971      -1.83611906      -0.00000000       440.324432      -1.55336189    
  0.791365981      -1.73284900      -0.00000000       440.488983      -1.55541420    
  0.735987008      -1.75708497      -0.00000000       440.488983      -1.55541420    
   0.00000000       0.00000000       0.00000000       440.488983      -1.55541420    
  0.845947027      -1.70686805      -0.00000000       440.488983      -1.55541420    
   1.00436401      -1.61872697      -0.00000000       446.890076      -1.55869007    
  0.952499986      -1.64977801      -0.00000000       446.890076      -1.55869007    
   0.00000000       0.00000000       0.00000000       446.890076      -1.55869007    
   1.05521798      -1.58604598      -0.00000000       446.890076      -1.55869007    
   0.00000000       0.00000000       0.00000000       442.872620      -1.55690253    
  0.952499986      -1.64977801      -0.00000000       442.872620      -1.55690253    
  0.899676025      -1.67916906      -0.00000000       442.872620      -1.55690253    
  0.845947027      -1.70686805      -0.00000000       442.872620      -1.55690253    
   1.10500801      -1.55176699      -0.00000000       452.009277      -1.56072283    
   1.05521798      -1.58604598      -0.00000000       452.009277      -1.56072283    
   0.00000000       0.00000000       0.00000000       452.009277      -1.56072283    
   1.15368605      -1.51592600      -0.00000000       452.009277      -1.56072283    
   1.29255998      -1.39939702      -0.00000000       459.777069      -1.56504774    
   1.24750996      -1.43970299      -0.00000000       459.777069      -1.56504774    
   0.00000000       0.00000000       0.00000000       459.777069      -1.56504774    
   1.33631003      -1.35768199      -0.00000000       459.777069      -1.56504774    
   0.00000000       0.00000000       0.00000000       457.149475      -1.56290305    
   1.24750996      -1.43970299      -0.00000000       457.149475      -1.56290305    
   1.20120299      -1.47855902      -0.00000000       457.149475      -1.56290305    