 VARIABLES="X" "Y" "Z" "abs(p) (Pa)" "angle(p) (rad)"
ZONE N=    802,E =     800, F=FEPOINT, ET=QUADRILATERAL
   1.90499997       0.00000000      -0.00000000       7.11760426      -1.61080658    
   1.90404105      -6.04420006E-02  -0.00000000       7.11760426      -1.61080658    
   0.00000000       0.00000000       0.00000000       7.11760426      -1.61080658    
   1.90404105       6.04420006E-02  -0.00000000       7.11760426      -1.61080658    
   1.88967395      0.241159007      -0.00000000       378.867462      -1.56672394    
   1.89637399      0.181081995      -0.00000000       378.867462      -1.56672394    
   0.00000000       0.00000000       0.00000000       378.867462      -1.56672394    
   1.88107097      0.300992996      -0.00000000       378.867462      -1.56672394    
   0.00000000       0.00000000       0.00000000       192.156570      -1.56747150    
   1.89637399      0.181081995      -0.00000000       192.156570      -1.56747150    
   1.90116501      0.120823003      -0.00000000       192.156570      -1.56747150    
   1.90404105       6.04420006E-02  -0.00000000       192.156570      -1.56747150    
   1.87057400      0.360523999      -0.00000000       568.448242      -1.56655693    
   1.88107097      0.300992996      -0.00000000       568.448242      -1.56655693    
   0.00000000       0.00000000       0.00000000       568.448242      -1.56655693    
   1.85819399      0.419692010      -0.00000000       568.448242      -1.56655693    
   1.80988598      0.594424009      -0.00000000       964.929199      -1.56672037    
   1.82783401      0.536701024      -0.00000000       964.929199      -1.56672037    
   0.00000000       0.00000000       0.00000000       964.929199      -1.56672037    
   1.79011405      0.651548028      -0.00000000       964.929199      -1.56672037    
   0.00000000       0.00000000       0.00000000       763.585938      -1.56659007    
   1.82783401      0.536701024      -0.00000000       763.585938      -1.56659007    
   1.84394205      0.478437006      -0.00000000       763.585938      -1.56659007    
   1.85819399      0.419692010      -0.00000000       763.585938      -1.56659007    
   1.76854098      0.708016992      -0.00000000       1175.04297      -1.56693614    
   1.79011405      0.651548028      -0.00000000       1175.04297      -1.56693614    
   0.00000000       0.00000000       0.00000000       1175.04297      -1.56693614    
   1.74518704      0.763773024      -0.00000000       1175.04297      -1.56693614    
   1.66468298      0.926204979      -0.00000000       1627.71838      -1.56755531    
   1.69323206      0.872922003      -0.00000000       1627.71838      -1.56755531    
   0.00000000       0.00000000       0.00000000       1627.71838      -1.56755531    
   1.63445795      0.978555024      -0.00000000       1627.71838      -1.56755531    
   0.00000000       0.00000000       0.00000000       1396.21851      -1.56722605    
   1.69323206      0.872922003      -0.00000000       1396.21851      -1.56722605    
   1.72007501      0.818759024      -0.00000000       1396.21851      -1.56722605    
   1.74518704      0.763773024      -0.00000000       1396.21851      -1.56722605    
   1.60258806       1.02992105      -0.00000000       1866.54248      -1.56790316    
   1.63445795      0.978555024      -0.00000000       1866.54248      -1.56790316    
   0.00000000       0.00000000       0.00000000       1866.54248      -1.56790316    
   1.56910396       1.08024895      -0.00000000       1866.54248      -1.56790316    
   1.45931494       1.22450995      -0.00000000       2333.90454      -1.56850159    
   1.49743104       1.17759299      -0.00000000       2333.90454      -1.56850159    
   0.00000000       0.00000000       0.00000000       2333.90454      -1.56850159    
   1.41972899       1.27019501      -0.00000000       2333.90454      -1.56850159    
   0.00000000       0.00000000       0.00000000       2106.17358      -1.56823540    
   1.49743104       1.17759299      -0.00000000       2106.17358      -1.56823540    
   1.53403997       1.12949002      -0.00000000       2106.17358      -1.56823540    
   1.56910396       1.08024895      -0.00000000       2106.17358      -1.56823540    
   1.37871301       1.31459999      -0.00000000       2501.24097      -1.56849444    
   1.41972899       1.27019501      -0.00000000       2501.24097      -1.56849444    
   0.00000000       0.00000000       0.00000000       2501.24097      -1.56849444    
   1.33631003       1.35768199      -0.00000000       2501.24097      -1.56849444    
   1.20120299       1.47855902      -0.00000000       2528.87427      -1.56718147    
   1.24750996       1.43970299      -0.00000000       2528.87427      -1.56718147    
   0.00000000       0.00000000       0.00000000       2528.87427      -1.56718147    
   1.15368605       1.51592600      -0.00000000       2528.87427      -1.56718147    
   0.00000000       0.00000000       0.00000000       2546.49878      -1.56796098    
   1.24750996       1.43970299      -0.00000000       2546.49878      -1.56796098    
   1.29255998       1.39939702      -0.00000000       2546.49878      -1.56796098    
   1.33631003       1.35768199      -0.00000000       2546.49878      -1.56796098    
   1.10500801       1.55176699      -0.00000000       2500.85059      -1.56640029    
   1.15368605       1.51592600      -0.00000000       2500.85059      -1.56640029    
   0.00000000       0.00000000       0.00000000       2500.85059      -1.56640029    
   1.05521798       1.58604598      -0.00000000       2500.85059      -1.56640029    
  0.899676025       1.67916906      -0.00000000       2458.61108      -1.56506181    
  0.952499986       1.64977801      -0.00000000       2458.61108      -1.56506181    
   0.00000000       0.00000000       0.00000000       2458.61108      -1.56506181    
  0.845947027       1.70686805      -0.00000000       2458.61108      -1.56506181    
   0.00000000       0.00000000       0.00000000       2475.45386      -1.56568086    
  0.952499986       1.64977801      -0.00000000       2475.45386      -1.56568086    
   1.00436401       1.61872697      -0.00000000       2475.45386      -1.56568086    
   1.05521798       1.58604598      -0.00000000       2475.45386      -1.56568086    
  0.791365981       1.73284900      -0.00000000       2451.34448      -1.56455314    
  0.845947027       1.70686805      -0.00000000       2451.34448      -1.56455314    
   0.00000000       0.00000000       0.00000000       2451.34448      -1.56455314    
  0.735987008       1.75708497      -0.00000000       2451.34448      -1.56455314    
  0.565632999       1.81908906      -0.00000000       2459.15503      -1.56385744    
  0.623063982       1.80022705      -0.00000000       2459.15503      -1.56385744    
   0.00000000       0.00000000       0.00000000       2459.15503      -1.56385744    
  0.507632971       1.83611906      -0.00000000       2459.15503      -1.56385744    
   0.00000000       0.00000000       0.00000000       2452.25293      -1.56415522    
  0.623063982       1.80022705      -0.00000000       2452.25293      -1.56415522    
  0.679867983       1.77955198      -0.00000000       2452.25293      -1.56415522    
  0.735987008       1.75708497      -0.00000000       2452.25293      -1.56415522    
  0.449120998       1.85130095      -0.00000000       2469.94458      -1.56364763    
  0.507632971       1.83611906      -0.00000000       2469.94458      -1.56364763    
   0.00000000       0.00000000       0.00000000       2469.94458      -1.56364763    
  0.390157014       1.86461902      -0.00000000       2469.94458      -1.56364763    
  0.211146995       1.89326203      -0.00000000       2491.34399      -1.56342208    
  0.271109998       1.88560998      -0.00000000       2491.34399      -1.56342208    
   0.00000000       0.00000000       0.00000000       2491.34399      -1.56342208    
  0.150970995       1.89900804      -0.00000000       2491.34399      -1.56342208    
   0.00000000       0.00000000       0.00000000       2481.74121      -1.56350863    
  0.271109998       1.88560998      -0.00000000       2481.74121      -1.56350863    
  0.330799997       1.87605906      -0.00000000       2481.74121      -1.56350863    
  0.390157014       1.86461902      -0.00000000       2481.74121      -1.56350863    
   9.06440020E-02   1.90284204      -0.00000000       2498.15552      -1.56338406    
  0.150970995       1.89900804      -0.00000000       2498.15552      -1.56338406    
   0.00000000       0.00000000       0.00000000       2498.15552      -1.56338406    
   3.02249994E-02   1.90476000      -0.00000000       2498.15552      -1.56338406    
 -0.150970995       1.89900804      -0.00000000       2502.17456      -1.56344295    
  -9.06440020E-02   1.90284204      -0.00000000       2502.17456      -1.56344295    
   0.00000000       0.00000000       0.00000000       2502.17456      -1.56344295    
 -0.211146995       1.89326203      -0.00000000       2502.17456      -1.56344295    
   0.00000000       0.00000000       0.00000000       2501.77832      -1.56339097    
  -9.06440020E-02   1.90284204      -0.00000000       2501.77832      -1.56339097    
  -3.02249994E-02   1.90476000      -0.00000000       2501.77832      -1.56339097    
   3.02249994E-02   1.90476000      -0.00000000       2501.77832      -1.56339097    
 -0.271109998       1.88560998      -0.00000000       2499.78149      -1.56354272    
 -0.211146995       1.89326203      -0.00000000       2499.78149      -1.56354272    
   0.00000000       0.00000000       0.00000000       2499.78149      -1.56354272    
 -0.330799997       1.87605906      -0.00000000       2499.78149      -1.56354272    
 -0.507632971       1.83611906      -0.00000000       2495.67480      -1.56393504    
 -0.449120998       1.85130095      -0.00000000       2495.67480      -1.56393504    
   0.00000000       0.00000000       0.00000000       2495.67480      -1.56393504    
 -0.565632999       1.81908906      -0.00000000       2495.67480      -1.56393504    
   0.00000000       0.00000000       0.00000000       2496.30957      -1.56369960    
 -0.449120998       1.85130095      -0.00000000       2496.30957      -1.56369960    
 -0.390157014       1.86461902      -0.00000000       2496.30957      -1.56369960    
 -0.330799997       1.87605906      -0.00000000       2496.30957      -1.56369960    
 -0.623063982       1.80022705      -0.00000000       2498.91138      -1.56425512    
 -0.565632999       1.81908906      -0.00000000       2498.91138      -1.56425512    
   0.00000000       0.00000000       0.00000000       2498.91138      -1.56425512    
 -0.679867983       1.77955198      -0.00000000       2498.91138      -1.56425512    
 -0.845947027       1.70686805      -0.00000000       2526.32935      -1.56519365    
 -0.791365981       1.73284900      -0.00000000       2526.32935      -1.56519365    
   0.00000000       0.00000000       0.00000000       2526.32935      -1.56519365    
 -0.899676025       1.67916906      -0.00000000       2526.32935      -1.56519365    
   0.00000000       0.00000000       0.00000000       2508.41504      -1.56467211    
 -0.791365981       1.73284900      -0.00000000       2508.41504      -1.56467211    
 -0.735987008       1.75708497      -0.00000000       2508.41504      -1.56467211    
 -0.679867983       1.77955198      -0.00000000       2508.41504      -1.56467211    
 -0.952499986       1.64977801      -0.00000000       2552.55298      -1.56581426    
 -0.899676025       1.67916906      -0.00000000       2552.55298      -1.56581426    
   0.00000000       0.00000000       0.00000000       2552.55298      -1.56581426    
  -1.00436401       1.61872697      -0.00000000       2552.55298      -1.56581426    
  -1.15368605       1.51592600      -0.00000000       2615.26538      -1.56726122    
  -1.10500801       1.55176699      -0.00000000       2615.26538      -1.56726122    
   0.00000000       0.00000000       0.00000000       2615.26538      -1.56726122    
  -1.20120299       1.47855902      -0.00000000       2615.26538      -1.56726122    
   0.00000000       0.00000000       0.00000000       2584.26587      -1.56651425    
  -1.10500801       1.55176699      -0.00000000       2584.26587      -1.56651425    
  -1.05521798       1.58604598      -0.00000000       2584.26587      -1.56651425    
  -1.00436401       1.61872697      -0.00000000       2584.26587      -1.56651425    
  -1.24750996       1.43970299      -0.00000000       2632.61279      -1.56799603    
  -1.20120299       1.47855902      -0.00000000       2632.61279      -1.56799603    
   0.00000000       0.00000000       0.00000000       2632.61279      -1.56799603    
  -1.29255998       1.39939702      -0.00000000       2632.61279      -1.56799603    
  -1.41972899       1.27019501      -0.00000000       2412.79980      -1.56847250    
  -1.37871301       1.31459999      -0.00000000       2412.79980      -1.56847250    
   0.00000000       0.00000000       0.00000000       2412.79980      -1.56847250    
  -1.45931494       1.22450995      -0.00000000       2412.79980      -1.56847250    
   0.00000000       0.00000000       0.00000000       2585.96973      -1.56849706    
  -1.37871301       1.31459999      -0.00000000       2585.96973      -1.56849706    
  -1.33631003       1.35768199      -0.00000000       2585.96973      -1.56849706    
  -1.29255998       1.39939702      -0.00000000       2585.96973      -1.56849706    
  -1.49743104       1.17759299      -0.00000000       2175.73730      -1.56815827    
  -1.45931494       1.22450995      -0.00000000       2175.73730      -1.56815827    
   0.00000000       0.00000000       0.00000000       2175.73730      -1.56815827    
  -1.53403997       1.12949002      -0.00000000       2175.73730      -1.56815827    
  -1.63445795      0.978555024      -0.00000000       1686.52771      -1.56737983    
  -1.60258806       1.02992105      -0.00000000       1686.52771      -1.56737983    
   0.00000000       0.00000000       0.00000000       1686.52771      -1.56737983    
  -1.66468298      0.926204979      -0.00000000       1686.52771      -1.56737983    
   0.00000000       0.00000000       0.00000000       1929.04199      -1.56777489    
  -1.60258806       1.02992105      -0.00000000       1929.04199      -1.56777489    
  -1.56910396       1.08024895      -0.00000000       1929.04199      -1.56777489    
  -1.53403997       1.12949002      -0.00000000       1929.04199      -1.56777489    
  -1.69323206      0.872922003      -0.00000000       1455.26294      -1.56701481    
  -1.66468298      0.926204979      -0.00000000       1455.26294      -1.56701481    
   0.00000000       0.00000000       0.00000000       1455.26294      -1.56701481    
  -1.72007501      0.818759024      -0.00000000       1455.26294      -1.56701481    
  -1.79011405      0.651548028      -0.00000000       1029.13098      -1.56645775    
  -1.76854098      0.708016992      -0.00000000       1029.13098      -1.56645775    
   0.00000000       0.00000000       0.00000000       1029.13098      -1.56645775    
  -1.80988598      0.594424009      -0.00000000       1029.13098      -1.56645775    
   0.00000000       0.00000000       0.00000000       1236.59485      -1.56670260    
  -1.76854098      0.708016992      -0.00000000       1236.59485      -1.56670260    
  -1.74518704      0.763773024      -0.00000000       1236.59485      -1.56670260    
  -1.72007501      0.818759024      -0.00000000       1236.59485      -1.56670260    
  -1.82783401      0.536701024      -0.00000000       830.849304      -1.56629145    
  -1.80988598      0.594424009      -0.00000000       830.849304      -1.56629145    
   0.00000000       0.00000000       0.00000000       830.849304      -1.56629145    
  -1.84394205      0.478437006      -0.00000000       830.849304      -1.56629145    
  -1.88107097      0.300992996      -0.00000000       451.457520      -1.56624413    
  -1.87057400      0.360523999      -0.00000000       451.457520      -1.56624413    
   0.00000000       0.00000000       0.00000000       451.457520      -1.56624413    
  -1.88967395      0.241159007      -0.00000000       451.457520      -1.56624413    
   0.00000000       0.00000000       0.00000000       638.908081      -1.56620848    
  -1.87057400      0.360523999      -0.00000000       638.908081      -1.56620848    
  -1.85819399      0.419692010      -0.00000000       638.908081      -1.56620848    
  -1.84394205      0.478437006      -0.00000000       638.908081      -1.56620848    
  -1.89637399      0.181081995      -0.00000000       266.015930      -1.56649196    
  -1.88967395      0.241159007      -0.00000000       266.015930      -1.56649196    
   0.00000000       0.00000000       0.00000000       266.015930      -1.56649196    
  -1.90116501      0.120823003      -0.00000000       266.015930      -1.56649196    
  -1.90404105      -6.04420006E-02  -0.00000000       100.391228       1.57809055    
  -1.90499997       0.00000000      -0.00000000       100.391228       1.57809055    
   0.00000000       0.00000000       0.00000000       100.391228       1.57809055    
  -1.90116501     -0.120823003      -0.00000000       100.391228       1.57809055    
   0.00000000       0.00000000       0.00000000       82.5640793      -1.56826699    
  -1.90499997       0.00000000      -0.00000000       82.5640793      -1.56826699    
  -1.90404105       6.04420006E-02  -0.00000000       82.5640793      -1.56826699    
  -1.90116501      0.120823003      -0.00000000       82.5640793      -1.56826699    
  -1.89637399     -0.181081995      -0.00000000       284.466156       1.57664132    
  -1.90116501     -0.120823003      -0.00000000       284.466156       1.57664132    
   0.00000000       0.00000000       0.00000000       284.466156       1.57664132    
  -1.88967395     -0.241159007      -0.00000000       284.466156       1.57664132    
  -1.85819399     -0.419692010      -0.00000000       658.758423       1.57601333    
  -1.87057400     -0.360523999      -0.00000000       658.758423       1.57601333    
   0.00000000       0.00000000       0.00000000       658.758423       1.57601333    
  -1.84394205     -0.478437006      -0.00000000       658.758423       1.57601333    
   0.00000000       0.00000000       0.00000000       470.426422       1.57625496    
  -1.87057400     -0.360523999      -0.00000000       470.426422       1.57625496    
  -1.88107097     -0.300992996      -0.00000000       470.426422       1.57625496    
  -1.88967395     -0.241159007      -0.00000000       470.426422       1.57625496    
  -1.82783401     -0.536701024      -0.00000000       852.393127       1.57576489    
  -1.84394205     -0.478437006      -0.00000000       852.393127       1.57576489    
   0.00000000       0.00000000       0.00000000       852.393127       1.57576489    
  -1.80988598     -0.594424009      -0.00000000       852.393127       1.57576489    
  -1.74518704     -0.763773024      -0.00000000       1261.96997       1.57517242    
  -1.76854098     -0.708016992      -0.00000000       1261.96997       1.57517242    
   0.00000000       0.00000000       0.00000000       1261.96997       1.57517242    
  -1.72007501     -0.818759024      -0.00000000       1261.96997       1.57517242    
   0.00000000       0.00000000       0.00000000       1052.58447       1.57549047    
  -1.76854098     -0.708016992      -0.00000000       1052.58447       1.57549047    
  -1.79011405     -0.651548028      -0.00000000       1052.58447       1.57549047    
  -1.80988598     -0.594424009      -0.00000000       1052.58447       1.57549047    
  -1.69323206     -0.872922003      -0.00000000       1482.69507       1.57480574    
  -1.72007501     -0.818759024      -0.00000000       1482.69507       1.57480574    
   0.00000000       0.00000000       0.00000000       1482.69507       1.57480574    
  -1.66468298     -0.926204979      -0.00000000       1482.69507       1.57480574    
  -1.56910396      -1.08024895      -0.00000000       1953.35938       1.57400572    
  -1.60258806      -1.02992105      -0.00000000       1953.35938       1.57400572    
   0.00000000       0.00000000       0.00000000       1953.35938       1.57400572    
  -1.53403997      -1.12949002      -0.00000000       1953.35938       1.57400572    
   0.00000000       0.00000000       0.00000000       1714.26917       1.57440925    
  -1.60258806      -1.02992105      -0.00000000       1714.26917       1.57440925    
  -1.63445795     -0.978555024      -0.00000000       1714.26917       1.57440925    
  -1.66468298     -0.926204979      -0.00000000       1714.26917       1.57440925    
  -1.49743104      -1.17759299      -0.00000000       2193.35889       1.57362688    
  -1.53403997      -1.12949002      -0.00000000       2193.35889       1.57362688    
   0.00000000       0.00000000       0.00000000       2193.35889       1.57362688    
  -1.45931494      -1.22450995      -0.00000000       2193.35889       1.57362688    
  -1.33631003      -1.35768199      -0.00000000       2586.38306       1.57330000    
  -1.37871301      -1.31459999      -0.00000000       2586.38306       1.57330000    
   0.00000000       0.00000000       0.00000000       2586.38306       1.57330000    
  -1.29255998      -1.39939702      -0.00000000       2586.38306       1.57330000    
   0.00000000       0.00000000       0.00000000       2421.28760       1.57331967    
  -1.37871301      -1.31459999      -0.00000000       2421.28760       1.57331967    
  -1.41972899      -1.27019501      -0.00000000       2421.28760       1.57331967    
  -1.45931494      -1.22450995      -0.00000000       2421.28760       1.57331967    
  -1.24750996      -1.43970299      -0.00000000       2625.52271       1.57381916    
  -1.29255998      -1.39939702      -0.00000000       2625.52271       1.57381916    
   0.00000000       0.00000000       0.00000000       2625.52271       1.57381916    
  -1.20120299      -1.47855902      -0.00000000       2625.52271       1.57381916    
  -1.05521798      -1.58604598      -0.00000000       2564.89258       1.57536495    
  -1.10500801      -1.55176699      -0.00000000       2564.89258       1.57536495    
   0.00000000       0.00000000       0.00000000       2564.89258       1.57536495    
  -1.00436401      -1.61872697      -0.00000000       2564.89258       1.57536495    
   0.00000000       0.00000000       0.00000000       2600.45752       1.57458878    
  -1.10500801      -1.55176699      -0.00000000       2600.45752       1.57458878    
  -1.15368605      -1.51592600      -0.00000000       2600.45752       1.57458878    
  -1.20120299      -1.47855902      -0.00000000       2600.45752       1.57458878    
 -0.952499986      -1.64977801      -0.00000000       2531.96680       1.57608223    
  -1.00436401      -1.61872697      -0.00000000       2531.96680       1.57608223    
   0.00000000       0.00000000       0.00000000       2531.96680       1.57608223    
 -0.899676025      -1.67916906      -0.00000000       2531.96680       1.57608223    
 -0.735987008      -1.75708497      -0.00000000       2493.50537       1.57721543    
 -0.791365981      -1.73284900      -0.00000000       2493.50537       1.57721543    
   0.00000000       0.00000000       0.00000000       2493.50537       1.57721543    
 -0.679867983      -1.77955198      -0.00000000       2493.50537       1.57721543    
   0.00000000       0.00000000       0.00000000       2507.88428       1.57670331    
 -0.791365981      -1.73284900      -0.00000000       2507.88428       1.57670331    
 -0.845947027      -1.70686805      -0.00000000       2507.88428       1.57670331    
 -0.899676025      -1.67916906      -0.00000000       2507.88428       1.57670331    
 -0.623063982      -1.80022705      -0.00000000       2487.66650       1.57761812    
 -0.679867983      -1.77955198      -0.00000000       2487.66650       1.57761812    
   0.00000000       0.00000000       0.00000000       2487.66650       1.57761812    
 -0.565632999      -1.81908906      -0.00000000       2487.66650       1.57761812    
 -0.390157014      -1.86461902      -0.00000000       2492.74316       1.57813656    
 -0.449120998      -1.85130095      -0.00000000       2492.74316       1.57813656    
   0.00000000       0.00000000       0.00000000       2492.74316       1.57813656    
 -0.330799997      -1.87605906      -0.00000000       2492.74316       1.57813656    
   0.00000000       0.00000000       0.00000000       2488.16553       1.57792020    
 -0.449120998      -1.85130095      -0.00000000       2488.16553       1.57792020    
 -0.507632971      -1.83611906      -0.00000000       2488.16553       1.57792020    
 -0.565632999      -1.81908906      -0.00000000       2488.16553       1.57792020    
 -0.271109998      -1.88560998      -0.00000000       2498.38647       1.57828081    
 -0.330799997      -1.87605906      -0.00000000       2498.38647       1.57828081    
   0.00000000       0.00000000       0.00000000       2498.38647       1.57828081    
 -0.211146995      -1.89326203      -0.00000000       2498.38647       1.57828081    
  -3.02249994E-02  -1.90476000      -0.00000000       2502.57300       1.57841933    
  -9.06440020E-02  -1.90284204      -0.00000000       2502.57300       1.57841933    
   0.00000000       0.00000000       0.00000000       2502.57300       1.57841933    
   3.02249994E-02  -1.90476000      -0.00000000       2502.57300       1.57841933    
   0.00000000       0.00000000       0.00000000       2501.85767       1.57837439    
  -9.06440020E-02  -1.90284204      -0.00000000       2501.85767       1.57837439    
 -0.150970995      -1.89900804      -0.00000000       2501.85767       1.57837439    
 -0.211146995      -1.89326203      -0.00000000       2501.85767       1.57837439    
   9.06440020E-02  -1.90284204      -0.00000000       2500.10938       1.57841980    
   3.02249994E-02  -1.90476000      -0.00000000       2500.10938       1.57841980    
   0.00000000       0.00000000       0.00000000       2500.10938       1.57841980    
  0.150970995      -1.89900804      -0.00000000       2500.10938       1.57841980    
  0.330799997      -1.87605906      -0.00000000       2485.92310       1.57828343    
  0.271109998      -1.88560998      -0.00000000       2485.92310       1.57828343    
   0.00000000       0.00000000       0.00000000       2485.92310       1.57828343    
  0.390157014      -1.86461902      -0.00000000       2485.92310       1.57828343    
   0.00000000       0.00000000       0.00000000       2494.39941       1.57837582    
  0.271109998      -1.88560998      -0.00000000       2494.39941       1.57837582    
  0.211146995      -1.89326203      -0.00000000       2494.39941       1.57837582    
  0.150970995      -1.89900804      -0.00000000       2494.39941       1.57837582    
  0.449120998      -1.85130095      -0.00000000       2476.36255       1.57813311    
  0.390157014      -1.86461902      -0.00000000       2476.36255       1.57813311    
   0.00000000       0.00000000       0.00000000       2476.36255       1.57813311    
  0.507632971      -1.83611906      -0.00000000       2476.36255       1.57813311    
  0.679867983      -1.77955198      -0.00000000       2466.37549       1.57758808    
  0.623063982      -1.80022705      -0.00000000       2466.37549       1.57758808    
   0.00000000       0.00000000       0.00000000       2466.37549       1.57758808    
  0.735987008      -1.75708497      -0.00000000       2466.37549       1.57758808    
   0.00000000       0.00000000       0.00000000       2469.54614       1.57790327    
  0.623063982      -1.80022705      -0.00000000       2469.54614       1.57790327    
  0.565632999      -1.81908906      -0.00000000       2469.54614       1.57790327    
  0.507632971      -1.83611906      -0.00000000       2469.54614       1.57790327    
  0.791365981      -1.73284900      -0.00000000       2469.08325       1.57717443    
  0.735987008      -1.75708497      -0.00000000       2469.08325       1.57717443    
   0.00000000       0.00000000       0.00000000       2469.08325       1.57717443    
  0.845947027      -1.70686805      -0.00000000       2469.08325       1.57717443    
   1.00436401      -1.61872697      -0.00000000       2499.27759       1.57602859    
  0.952499986      -1.64977801      -0.00000000       2499.27759       1.57602859    
   0.00000000       0.00000000       0.00000000       2499.27759       1.57602859    
   1.05521798      -1.58604598      -0.00000000       2499.27759       1.57602859    
   0.00000000       0.00000000       0.00000000       2480.14331       1.57665217    
  0.952499986      -1.64977801      -0.00000000       2480.14331       1.57665217    
  0.899676025      -1.67916906      -0.00000000       2480.14331       1.57665217    
  0.845947027      -1.70686805      -0.00000000       2480.14331       1.57665217    
   1.10500801      -1.55176699      -0.00000000       2523.73633       1.57532048    
   1.05521798      -1.58604598      -0.00000000       2523.73633       1.57532048    
   0.00000000       0.00000000       0.00000000       2523.73633       1.57532048    
   1.15368605      -1.51592600      -0.00000000       2523.73633       1.57532048    
   1.29255998      -1.39939702      -0.00000000       2557.81982       1.57381546    
   1.24750996      -1.43970299      -0.00000000       2557.81982       1.57381546    
   0.00000000       0.00000000       0.00000000       2557.81982       1.57381546    
   1.33631003      -1.35768199      -0.00000000       2557.81982       1.57381546    
   0.00000000       0.00000000       0.00000000       2547.53516       1.57456374    
   1.24750996      -1.43970299      -0.00000000       2547.53516       1.57456374    
   1.20120299      -1.47855902      -0.00000000       2547.53516       1.57456374    