 VARIABLES="X" "Y" "Z" "abs(p) (Pa)" "angle(p) (rad)"
ZONE N=    802,E =     800, F=FEPOINT, ET=QUADRILATERAL
   1.90499997       0.00000000      -0.00000000      0.898453712       1.53119326    
   1.90404105      -6.04420006E-02  -0.00000000      0.898453712       1.53119326    
   0.00000000       0.00000000       0.00000000      0.898453712       1.53119326    
   1.90404105       6.04420006E-02  -0.00000000      0.898453712       1.53119326    
   1.88967395      0.241159007      -0.00000000       49.2236290       1.57299447    
   1.89637399      0.181081995      -0.00000000       49.2236290       1.57299447    
   0.00000000       0.00000000       0.00000000       49.2236290       1.57299447    
   1.88107097      0.300992996      -0.00000000       49.2236290       1.57299447    
   0.00000000       0.00000000       0.00000000       24.9528751       1.57228673    
   1.89637399      0.181081995      -0.00000000       24.9528751       1.57228673    
   1.90116501      0.120823003      -0.00000000       24.9528751       1.57228673    
   1.90404105       6.04420006E-02  -0.00000000       24.9528751       1.57228673    
   1.87057400      0.360523999      -0.00000000       73.8659286       1.57318854    
   1.88107097      0.300992996      -0.00000000       73.8659286       1.57318854    
   0.00000000       0.00000000       0.00000000       73.8659286       1.57318854    
   1.85819399      0.419692010      -0.00000000       73.8659286       1.57318854    
   1.80988598      0.594424009      -0.00000000       125.347473       1.57317209    
   1.82783401      0.536701024      -0.00000000       125.347473       1.57317209    
   0.00000000       0.00000000       0.00000000       125.347473       1.57317209    
   1.79011405      0.651548028      -0.00000000       125.347473       1.57317209    
   0.00000000       0.00000000       0.00000000       99.2164764       1.57321811    
   1.82783401      0.536701024      -0.00000000       99.2164764       1.57321811    
   1.84394205      0.478437006      -0.00000000       99.2164764       1.57321811    
   1.85819399      0.419692010      -0.00000000       99.2164764       1.57321811    
   1.76854098      0.708016992      -0.00000000       152.570282       1.57307053    
   1.79011405      0.651548028      -0.00000000       152.570282       1.57307053    
   0.00000000       0.00000000       0.00000000       152.570282       1.57307053    
   1.74518704      0.763773024      -0.00000000       152.570282       1.57307053    
   1.66468298      0.926204979      -0.00000000       211.010315       1.57274759    
   1.69323206      0.872922003      -0.00000000       211.010315       1.57274759    
   0.00000000       0.00000000       0.00000000       211.010315       1.57274759    
   1.63445795      0.978555024      -0.00000000       211.010315       1.57274759    
   0.00000000       0.00000000       0.00000000       181.159271       1.57292354    
   1.69323206      0.872922003      -0.00000000       181.159271       1.57292354    
   1.72007501      0.818759024      -0.00000000       181.159271       1.57292354    
   1.74518704      0.763773024      -0.00000000       181.159271       1.57292354    
   1.60258806       1.02992105      -0.00000000       241.744247       1.57256162    
   1.63445795      0.978555024      -0.00000000       241.744247       1.57256162    
   0.00000000       0.00000000       0.00000000       241.744247       1.57256162    
   1.56910396       1.08024895      -0.00000000       241.744247       1.57256162    
   1.45931494       1.22450995      -0.00000000       301.861023       1.57223773    
   1.49743104       1.17759299      -0.00000000       301.861023       1.57223773    
   0.00000000       0.00000000       0.00000000       301.861023       1.57223773    
   1.41972899       1.27019501      -0.00000000       301.861023       1.57223773    
   0.00000000       0.00000000       0.00000000       272.553040       1.57238162    
   1.49743104       1.17759299      -0.00000000       272.553040       1.57238162    
   1.53403997       1.12949002      -0.00000000       272.553040       1.57238162    
   1.56910396       1.08024895      -0.00000000       272.553040       1.57238162    
   1.37871301       1.31459999      -0.00000000       323.562744       1.57224584    
   1.41972899       1.27019501      -0.00000000       323.562744       1.57224584    
   0.00000000       0.00000000       0.00000000       323.562744       1.57224584    
   1.33631003       1.35768199      -0.00000000       323.562744       1.57224584    
   1.20120299       1.47855902      -0.00000000       328.200806       1.57298648    
   1.24750996       1.43970299      -0.00000000       328.200806       1.57298648    
   0.00000000       0.00000000       0.00000000       328.200806       1.57298648    
   1.15368605       1.51592600      -0.00000000       328.200806       1.57298648    
   0.00000000       0.00000000       0.00000000       329.847260       1.57254755    
   1.24750996       1.43970299      -0.00000000       329.847260       1.57254755    
   1.29255998       1.39939702      -0.00000000       329.847260       1.57254755    
   1.33631003       1.35768199      -0.00000000       329.847260       1.57254755    
   1.10500801       1.55176699      -0.00000000       325.230042       1.57342339    
   1.15368605       1.51592600      -0.00000000       325.230042       1.57342339    
   0.00000000       0.00000000       0.00000000       325.230042       1.57342339    
   1.05521798       1.58604598      -0.00000000       325.230042       1.57342339    
  0.899676025       1.67916906      -0.00000000       320.865631       1.57417023    
  0.952499986       1.64977801      -0.00000000       320.865631       1.57417023    
   0.00000000       0.00000000       0.00000000       320.865631       1.57417023    
  0.845947027       1.70686805      -0.00000000       320.865631       1.57417023    
   0.00000000       0.00000000       0.00000000       322.542267       1.57382488    
  0.952499986       1.64977801      -0.00000000       322.542267       1.57382488    
   1.00436401       1.61872697      -0.00000000       322.542267       1.57382488    
   1.05521798       1.58604598      -0.00000000       322.542267       1.57382488    
  0.791365981       1.73284900      -0.00000000       320.318970       1.57445335    
  0.845947027       1.70686805      -0.00000000       320.318970       1.57445335    
   0.00000000       0.00000000       0.00000000       320.318970       1.57445335    
  0.735987008       1.75708497      -0.00000000       320.318970       1.57445335    
  0.565632999       1.81908906      -0.00000000       321.829437       1.57484102    
  0.623063982       1.80022705      -0.00000000       321.829437       1.57484102    
   0.00000000       0.00000000       0.00000000       321.829437       1.57484102    
  0.507632971       1.83611906      -0.00000000       321.829437       1.57484102    
   0.00000000       0.00000000       0.00000000       320.727997       1.57467508    
  0.623063982       1.80022705      -0.00000000       320.727997       1.57467508    
  0.679867983       1.77955198      -0.00000000       320.727997       1.57467508    
  0.735987008       1.75708497      -0.00000000       320.727997       1.57467508    
  0.449120998       1.85130095      -0.00000000       323.362213       1.57495964    
  0.507632971       1.83611906      -0.00000000       323.362213       1.57495964    
   0.00000000       0.00000000       0.00000000       323.362213       1.57495964    
  0.390157014       1.86461902      -0.00000000       323.362213       1.57495964    
  0.211146995       1.89326203      -0.00000000       326.266083       1.57508707    
  0.271109998       1.88560998      -0.00000000       326.266083       1.57508707    
   0.00000000       0.00000000       0.00000000       326.266083       1.57508707    
  0.150970995       1.89900804      -0.00000000       326.266083       1.57508707    
   0.00000000       0.00000000       0.00000000       324.972443       1.57503772    
  0.271109998       1.88560998      -0.00000000       324.972443       1.57503772    
  0.330799997       1.87605906      -0.00000000       324.972443       1.57503772    
  0.390157014       1.86461902      -0.00000000       324.972443       1.57503772    
   9.06440020E-02   1.90284204      -0.00000000       327.171295       1.57510805    
  0.150970995       1.89900804      -0.00000000       327.171295       1.57510805    
   0.00000000       0.00000000       0.00000000       327.171295       1.57510805    
   3.02249994E-02   1.90476000      -0.00000000       327.171295       1.57510805    
 -0.150970995       1.89900804      -0.00000000       327.674408       1.57507527    
  -9.06440020E-02   1.90284204      -0.00000000       327.674408       1.57507527    
   0.00000000       0.00000000       0.00000000       327.674408       1.57507527    
 -0.211146995       1.89326203      -0.00000000       327.674408       1.57507527    
   0.00000000       0.00000000       0.00000000       327.643707       1.57510400    
  -9.06440020E-02   1.90284204      -0.00000000       327.643707       1.57510400    
  -3.02249994E-02   1.90476000      -0.00000000       327.643707       1.57510400    
   3.02249994E-02   1.90476000      -0.00000000       327.643707       1.57510400    
 -0.271109998       1.88560998      -0.00000000       327.318298       1.57501900    
 -0.211146995       1.89326203      -0.00000000       327.318298       1.57501900    
   0.00000000       0.00000000       0.00000000       327.318298       1.57501900    
 -0.330799997       1.87605906      -0.00000000       327.318298       1.57501900    
 -0.507632971       1.83611906      -0.00000000       326.564148       1.57479846    
 -0.449120998       1.85130095      -0.00000000       326.564148       1.57479846    
   0.00000000       0.00000000       0.00000000       326.564148       1.57479846    
 -0.565632999       1.81908906      -0.00000000       326.564148       1.57479846    
   0.00000000       0.00000000       0.00000000       326.786377       1.57493067    
 -0.449120998       1.85130095      -0.00000000       326.786377       1.57493067    
 -0.390157014       1.86461902      -0.00000000       326.786377       1.57493067    
 -0.330799997       1.87605906      -0.00000000       326.786377       1.57493067    
 -0.623063982       1.80022705      -0.00000000       326.770630       1.57461977    
 -0.565632999       1.81908906      -0.00000000       326.770630       1.57461977    
   0.00000000       0.00000000       0.00000000       326.770630       1.57461977    
 -0.679867983       1.77955198      -0.00000000       326.770630       1.57461977    
 -0.845947027       1.70686805      -0.00000000       329.613983       1.57409716    
 -0.791365981       1.73284900      -0.00000000       329.613983       1.57409716    
   0.00000000       0.00000000       0.00000000       329.613983       1.57409716    
 -0.899676025       1.67916906      -0.00000000       329.613983       1.57409716    
   0.00000000       0.00000000       0.00000000       327.699615       1.57438695    
 -0.791365981       1.73284900      -0.00000000       327.699615       1.57438695    
 -0.735987008       1.75708497      -0.00000000       327.699615       1.57438695    
 -0.679867983       1.77955198      -0.00000000       327.699615       1.57438695    
 -0.952499986       1.64977801      -0.00000000       332.494202       1.57375121    
 -0.899676025       1.67916906      -0.00000000       332.494202       1.57375121    
   0.00000000       0.00000000       0.00000000       332.494202       1.57375121    
  -1.00436401       1.61872697      -0.00000000       332.494202       1.57375121    
  -1.15368605       1.51592600      -0.00000000       339.355103       1.57294273    
  -1.10500801       1.55176699      -0.00000000       339.355103       1.57294273    
   0.00000000       0.00000000       0.00000000       339.355103       1.57294273    
  -1.20120299       1.47855902      -0.00000000       339.355103       1.57294273    
   0.00000000       0.00000000       0.00000000       335.995483       1.57336020    
  -1.10500801       1.55176699      -0.00000000       335.995483       1.57336020    
  -1.05521798       1.58604598      -0.00000000       335.995483       1.57336020    
  -1.00436401       1.61872697      -0.00000000       335.995483       1.57336020    
  -1.24750996       1.43970299      -0.00000000       340.976105       1.57252991    
  -1.20120299       1.47855902      -0.00000000       340.976105       1.57252991    
   0.00000000       0.00000000       0.00000000       340.976105       1.57252991    
  -1.29255998       1.39939702      -0.00000000       340.976105       1.57252991    
  -1.41972899       1.27019501      -0.00000000       312.102875       1.57225716    
  -1.37871301       1.31459999      -0.00000000       312.102875       1.57225716    
   0.00000000       0.00000000       0.00000000       312.102875       1.57225716    
  -1.45931494       1.22450995      -0.00000000       312.102875       1.57225716    
   0.00000000       0.00000000       0.00000000       334.529816       1.57224643    
  -1.37871301       1.31459999      -0.00000000       334.529816       1.57224643    
  -1.33631003       1.35768199      -0.00000000       334.529816       1.57224643    
  -1.29255998       1.39939702      -0.00000000       334.529816       1.57224643    
  -1.49743104       1.17759299      -0.00000000       281.625854       1.57242870    
  -1.45931494       1.22450995      -0.00000000       281.625854       1.57242870    
   0.00000000       0.00000000       0.00000000       281.625854       1.57242870    
  -1.53403997       1.12949002      -0.00000000       281.625854       1.57242870    
  -1.63445795      0.978555024      -0.00000000       218.739517       1.57285118    
  -1.60258806       1.02992105      -0.00000000       218.739517       1.57285118    
   0.00000000       0.00000000       0.00000000       218.739517       1.57285118    
  -1.66468298      0.926204979      -0.00000000       218.739517       1.57285118    
   0.00000000       0.00000000       0.00000000       249.931793       1.57263815    
  -1.60258806       1.02992105      -0.00000000       249.931793       1.57263815    
  -1.56910396       1.08024895      -0.00000000       249.931793       1.57263815    
  -1.53403997       1.12949002      -0.00000000       249.931793       1.57263815    
  -1.69323206      0.872922003      -0.00000000       188.923523       1.57304680    
  -1.66468298      0.926204979      -0.00000000       188.923523       1.57304680    
   0.00000000       0.00000000       0.00000000       188.923523       1.57304680    
  -1.72007501      0.818759024      -0.00000000       188.923523       1.57304680    
  -1.79011405      0.651548028      -0.00000000       133.767273       1.57333076    
  -1.76854098      0.708016992      -0.00000000       133.767273       1.57333076    
   0.00000000       0.00000000       0.00000000       133.767273       1.57333076    
  -1.80988598      0.594424009      -0.00000000       133.767273       1.57333076    
   0.00000000       0.00000000       0.00000000       160.653900       1.57321012    
  -1.76854098      0.708016992      -0.00000000       160.653900       1.57321012    
  -1.74518704      0.763773024      -0.00000000       160.653900       1.57321012    
  -1.72007501      0.818759024      -0.00000000       160.653900       1.57321012    
  -1.82783401      0.536701024      -0.00000000       108.023262       1.57340050    
  -1.80988598      0.594424009      -0.00000000       108.023262       1.57340050    
   0.00000000       0.00000000       0.00000000       108.023262       1.57340050    
  -1.84394205      0.478437006      -0.00000000       108.023262       1.57340050    
  -1.88107097      0.300992996      -0.00000000       58.7066727       1.57331979    
  -1.87057400      0.360523999      -0.00000000       58.7066727       1.57331979    
   0.00000000       0.00000000       0.00000000       58.7066727       1.57331979    
  -1.88967395      0.241159007      -0.00000000       58.7066727       1.57331979    
   0.00000000       0.00000000       0.00000000       83.0773239       1.57340920    
  -1.87057400      0.360523999      -0.00000000       83.0773239       1.57340920    
  -1.85819399      0.419692010      -0.00000000       83.0773239       1.57340920    
  -1.84394205      0.478437006      -0.00000000       83.0773239       1.57340920    
  -1.89637399      0.181081995      -0.00000000       34.6011238       1.57301247    
  -1.88967395      0.241159007      -0.00000000       34.6011238       1.57301247    
   0.00000000       0.00000000       0.00000000       34.6011238       1.57301247    
  -1.90116501      0.120823003      -0.00000000       34.6011238       1.57301247    
  -1.90404105      -6.04420006E-02  -0.00000000       13.0285501      -1.56535554    
  -1.90499997       0.00000000      -0.00000000       13.0285501      -1.56535554    
   0.00000000       0.00000000       0.00000000       13.0285501      -1.56535554    
  -1.90116501     -0.120823003      -0.00000000       13.0285501      -1.56535554    
   0.00000000       0.00000000       0.00000000       10.7542915       1.57108116    
  -1.90499997       0.00000000      -0.00000000       10.7542915       1.57108116    
  -1.90404105       6.04420006E-02  -0.00000000       10.7542915       1.57108116    
  -1.90116501      0.120823003      -0.00000000       10.7542915       1.57108116    
  -1.89637399     -0.181081995      -0.00000000       36.9559326      -1.56690109    
  -1.90116501     -0.120823003      -0.00000000       36.9559326      -1.56690109    
   0.00000000       0.00000000       0.00000000       36.9559326      -1.56690109    
  -1.88967395     -0.241159007      -0.00000000       36.9559326      -1.56690109    
  -1.85819399     -0.419692010      -0.00000000       85.6189041      -1.56748533    
  -1.87057400     -0.360523999      -0.00000000       85.6189041      -1.56748533    
   0.00000000       0.00000000       0.00000000       85.6189041      -1.56748533    
  -1.84394205     -0.478437006      -0.00000000       85.6189041      -1.56748533    
   0.00000000       0.00000000       0.00000000       61.1316261      -1.56727707    
  -1.87057400     -0.360523999      -0.00000000       61.1316261      -1.56727707    
  -1.88107097     -0.300992996      -0.00000000       61.1316261      -1.56727707    
  -1.88967395     -0.241159007      -0.00000000       61.1316261      -1.56727707    
  -1.82783401     -0.536701024      -0.00000000       110.783905      -1.56766522    
  -1.84394205     -0.478437006      -0.00000000       110.783905      -1.56766522    
   0.00000000       0.00000000       0.00000000       110.783905      -1.56766522    
  -1.80988598     -0.594424009      -0.00000000       110.783905      -1.56766522    
  -1.74518704     -0.763773024      -0.00000000       163.903900      -1.56804442    
  -1.76854098     -0.708016992      -0.00000000       163.903900      -1.56804442    
   0.00000000       0.00000000       0.00000000       163.903900      -1.56804442    
  -1.72007501     -0.818759024      -0.00000000       163.903900      -1.56804442    
   0.00000000       0.00000000       0.00000000       136.772247      -1.56784701    
  -1.76854098     -0.708016992      -0.00000000       136.772247      -1.56784701    
  -1.79011405     -0.651548028      -0.00000000       136.772247      -1.56784701    
  -1.80988598     -0.594424009      -0.00000000       136.772247      -1.56784701    
  -1.69323206     -0.872922003      -0.00000000       192.432938      -1.56826568    
  -1.72007501     -0.818759024      -0.00000000       192.432938      -1.56826568    
   0.00000000       0.00000000       0.00000000       192.432938      -1.56826568    
  -1.66468298     -0.926204979      -0.00000000       192.432938      -1.56826568    
  -1.56910396      -1.08024895      -0.00000000       253.039352      -1.56873310    
  -1.60258806      -1.02992105      -0.00000000       253.039352      -1.56873310    
   0.00000000       0.00000000       0.00000000       253.039352      -1.56873310    
  -1.53403997      -1.12949002      -0.00000000       253.039352      -1.56873310    
   0.00000000       0.00000000       0.00000000       222.284393      -1.56849837    
  -1.60258806      -1.02992105      -0.00000000       222.284393      -1.56849837    
  -1.63445795     -0.978555024      -0.00000000       222.284393      -1.56849837    
  -1.66468298     -0.926204979      -0.00000000       222.284393      -1.56849837    
  -1.49743104      -1.17759299      -0.00000000       283.880066      -1.56895208    
  -1.53403997      -1.12949002      -0.00000000       283.880066      -1.56895208    
   0.00000000       0.00000000       0.00000000       283.880066      -1.56895208    
  -1.45931494      -1.22450995      -0.00000000       283.880066      -1.56895208    
  -1.33631003      -1.35768199      -0.00000000       334.594940      -1.56914234    
  -1.37871301      -1.31459999      -0.00000000       334.594940      -1.56914234    
   0.00000000       0.00000000       0.00000000       334.594940      -1.56914234    
  -1.29255998      -1.39939702      -0.00000000       334.594940      -1.56914234    
   0.00000000       0.00000000       0.00000000       313.196075      -1.56912923    
  -1.37871301      -1.31459999      -0.00000000       313.196075      -1.56912923    
  -1.41972899      -1.27019501      -0.00000000       313.196075      -1.56912923    
  -1.45931494      -1.22450995      -0.00000000       313.196075      -1.56912923    
  -1.24750996      -1.43970299      -0.00000000       340.086121      -1.56885040    
  -1.29255998      -1.39939702      -0.00000000       340.086121      -1.56885040    
   0.00000000       0.00000000       0.00000000       340.086121      -1.56885040    
  -1.20120299      -1.47855902      -0.00000000       340.086121      -1.56885040    
  -1.05521798      -1.58604598      -0.00000000       333.536072      -1.56798184    
  -1.10500801      -1.55176699      -0.00000000       333.536072      -1.56798184    
   0.00000000       0.00000000       0.00000000       333.536072      -1.56798184    
  -1.00436401      -1.61872697      -0.00000000       333.536072      -1.56798184    
   0.00000000       0.00000000       0.00000000       337.479919      -1.56841695    
  -1.10500801      -1.55176699      -0.00000000       337.479919      -1.56841695    
  -1.15368605      -1.51592600      -0.00000000       337.479919      -1.56841695    
  -1.20120299      -1.47855902      -0.00000000       337.479919      -1.56841695    
 -0.952499986      -1.64977801      -0.00000000       329.878632      -1.56758094    
  -1.00436401      -1.61872697      -0.00000000       329.878632      -1.56758094    
   0.00000000       0.00000000       0.00000000       329.878632      -1.56758094    
 -0.899676025      -1.67916906      -0.00000000       329.878632      -1.56758094    
 -0.735987008      -1.75708497      -0.00000000       325.798157      -1.56694973    
 -0.791365981      -1.73284900      -0.00000000       325.798157      -1.56694973    
   0.00000000       0.00000000       0.00000000       325.798157      -1.56694973    
 -0.679867983      -1.77955198      -0.00000000       325.798157      -1.56694973    
   0.00000000       0.00000000       0.00000000       327.266235      -1.56723523    
 -0.791365981      -1.73284900      -0.00000000       327.266235      -1.56723523    
 -0.845947027      -1.70686805      -0.00000000       327.266235      -1.56723523    
 -0.899676025      -1.67916906      -0.00000000       327.266235      -1.56723523    
 -0.623063982      -1.80022705      -0.00000000       325.333252      -1.56672537    
 -0.679867983      -1.77955198      -0.00000000       325.333252      -1.56672537    
   0.00000000       0.00000000       0.00000000       325.333252      -1.56672537    
 -0.565632999      -1.81908906      -0.00000000       325.333252      -1.56672537    
 -0.390157014      -1.86461902      -0.00000000       326.326050      -1.56643534    
 -0.449120998      -1.85130095      -0.00000000       326.326050      -1.56643534    
   0.00000000       0.00000000       0.00000000       326.326050      -1.56643534    
 -0.330799997      -1.87605906      -0.00000000       326.326050      -1.56643534    
   0.00000000       0.00000000       0.00000000       325.600647      -1.56655610    
 -0.449120998      -1.85130095      -0.00000000       325.600647      -1.56655610    
 -0.507632971      -1.83611906      -0.00000000       325.600647      -1.56655610    
 -0.565632999      -1.81908906      -0.00000000       325.600647      -1.56655610    
 -0.271109998      -1.88560998      -0.00000000       327.137390      -1.56635427    
 -0.330799997      -1.87605906      -0.00000000       327.137390      -1.56635427    
   0.00000000       0.00000000       0.00000000       327.137390      -1.56635427    
 -0.211146995      -1.89326203      -0.00000000       327.137390      -1.56635427    
  -3.02249994E-02  -1.90476000      -0.00000000       327.751923      -1.56627679    
  -9.06440020E-02  -1.90284204      -0.00000000       327.751923      -1.56627679    
   0.00000000       0.00000000       0.00000000       327.751923      -1.56627679    
   3.02249994E-02  -1.90476000      -0.00000000       327.751923      -1.56627679    
   0.00000000       0.00000000       0.00000000       327.635742      -1.56630266    
  -9.06440020E-02  -1.90284204      -0.00000000       327.635742      -1.56630266    
 -0.150970995      -1.89900804      -0.00000000       327.635742      -1.56630266    
 -0.211146995      -1.89326203      -0.00000000       327.635742      -1.56630266    
   9.06440020E-02  -1.90284204      -0.00000000       327.434662      -1.56627667    
   3.02249994E-02  -1.90476000      -0.00000000       327.434662      -1.56627667    
   0.00000000       0.00000000       0.00000000       327.434662      -1.56627667    
  0.150970995      -1.89900804      -0.00000000       327.434662      -1.56627667    
  0.330799997      -1.87605906      -0.00000000       325.529694      -1.56635380    
  0.271109998      -1.88560998      -0.00000000       325.529694      -1.56635380    
   0.00000000       0.00000000       0.00000000       325.529694      -1.56635380    
  0.390157014      -1.86461902      -0.00000000       325.529694      -1.56635380    
   0.00000000       0.00000000       0.00000000       326.675110      -1.56630218    
  0.271109998      -1.88560998      -0.00000000       326.675110      -1.56630218    
  0.211146995      -1.89326203      -0.00000000       326.675110      -1.56630218    
  0.150970995      -1.89900804      -0.00000000       326.675110      -1.56630218    
  0.449120998      -1.85130095      -0.00000000       324.206909      -1.56643832    
  0.390157014      -1.86461902      -0.00000000       324.206909      -1.56643832    
   0.00000000       0.00000000       0.00000000       324.206909      -1.56643832    
  0.507632971      -1.83611906      -0.00000000       324.206909      -1.56643832    
  0.679867983      -1.77955198      -0.00000000       322.553314      -1.56674230    
  0.623063982      -1.80022705      -0.00000000       322.553314      -1.56674230    
   0.00000000       0.00000000       0.00000000       322.553314      -1.56674230    
  0.735987008      -1.75708497      -0.00000000       322.553314      -1.56674230    
   0.00000000       0.00000000       0.00000000       323.179871      -1.56656694    
  0.623063982      -1.80022705      -0.00000000       323.179871      -1.56656694    
  0.565632999      -1.81908906      -0.00000000       323.179871      -1.56656694    
  0.507632971      -1.83611906      -0.00000000       323.179871      -1.56656694    
  0.791365981      -1.73284900      -0.00000000       322.600586      -1.56697357    
  0.735987008      -1.75708497      -0.00000000       322.600586      -1.56697357    
   0.00000000       0.00000000       0.00000000       322.600586      -1.56697357    
  0.845947027      -1.70686805      -0.00000000       322.600586      -1.56697357    
   1.00436401      -1.61872697      -0.00000000       325.590393      -1.56761253    
  0.952499986      -1.64977801      -0.00000000       325.590393      -1.56761253    
   0.00000000       0.00000000       0.00000000       325.590393      -1.56761253    
   1.05521798      -1.58604598      -0.00000000       325.590393      -1.56761253    
   0.00000000       0.00000000       0.00000000       323.626404      -1.56726432    
  0.952499986      -1.64977801      -0.00000000       323.626404      -1.56726432    
  0.899676025      -1.67916906      -0.00000000       323.626404      -1.56726432    
  0.845947027      -1.70686805      -0.00000000       323.626404      -1.56726432    
   1.10500801      -1.55176699      -0.00000000       328.153198      -1.56800759    
   1.05521798      -1.58604598      -0.00000000       328.153198      -1.56800759    
   0.00000000       0.00000000       0.00000000       328.153198      -1.56800759    
   1.15368605      -1.51592600      -0.00000000       328.153198      -1.56800759    
   1.29255998      -1.39939702      -0.00000000       331.291748      -1.56885195    
   1.24750996      -1.43970299      -0.00000000       331.291748      -1.56885195    
   0.00000000       0.00000000       0.00000000       331.291748      -1.56885195    
   1.33631003      -1.35768199      -0.00000000       331.291748      -1.56885195    
   0.00000000       0.00000000       0.00000000       330.582642      -1.56843197    
   1.24750996      -1.43970299      -0.00000000       330.582642      -1.56843197    
   1.20120299      -1.47855902      -0.00000000       330.582642      -1.56843197    