 VARIABLES="X" "Y" "Z" "abs(p) (Pa)" "angle(p) (rad)"
ZONE N=    802,E =     800, F=FEPOINT, ET=QUADRILATERAL
   1.90499997       0.00000000      -0.00000000       9.69057083      -1.62190986    
   1.90404105      -6.04420006E-02  -0.00000000       9.69057083      -1.62190986    
   0.00000000       0.00000000       0.00000000       9.69057083      -1.62190986    
   1.90404105       6.04420006E-02  -0.00000000       9.69057083      -1.62190986    
   1.88967395      0.241159007      -0.00000000       515.156677      -1.55767000    
   1.89637399      0.181081995      -0.00000000       515.156677      -1.55767000    
   0.00000000       0.00000000       0.00000000       515.156677      -1.55767000    
   1.88107097      0.300992996      -0.00000000       515.156677      -1.55767000    
   0.00000000       0.00000000       0.00000000       261.681702      -1.55866039    
   1.89637399      0.181081995      -0.00000000       261.681702      -1.55866039    
   1.90116501      0.120823003      -0.00000000       261.681702      -1.55866039    
   1.90404105       6.04420006E-02  -0.00000000       261.681702      -1.55866039    
   1.87057400      0.360523999      -0.00000000       772.416626      -1.55765879    
   1.88107097      0.300992996      -0.00000000       772.416626      -1.55765879    
   0.00000000       0.00000000       0.00000000       772.416626      -1.55765879    
   1.85819399      0.419692010      -0.00000000       772.416626      -1.55765879    
   1.80988598      0.594424009      -0.00000000       1311.40625      -1.55887258    
   1.82783401      0.536701024      -0.00000000       1311.40625      -1.55887258    
   0.00000000       0.00000000       0.00000000       1311.40625      -1.55887258    
   1.79011405      0.651548028      -0.00000000       1311.40625      -1.55887258    
   0.00000000       0.00000000       0.00000000       1037.59668      -1.55813169    
   1.82783401      0.536701024      -0.00000000       1037.59668      -1.55813169    
   1.84394205      0.478437006      -0.00000000       1037.59668      -1.55813169    
   1.85819399      0.419692010      -0.00000000       1037.59668      -1.55813169    
   1.76854098      0.708016992      -0.00000000       1598.56689      -1.55993700    
   1.79011405      0.651548028      -0.00000000       1598.56689      -1.55993700    
   0.00000000       0.00000000       0.00000000       1598.56689      -1.55993700    
   1.74518704      0.763773024      -0.00000000       1598.56689      -1.55993700    
   1.66468298      0.926204979      -0.00000000       2223.72363      -1.56284034    
   1.69323206      0.872922003      -0.00000000       2223.72363      -1.56284034    
   0.00000000       0.00000000       0.00000000       2223.72363      -1.56284034    
   1.63445795      0.978555024      -0.00000000       2223.72363      -1.56284034    
   0.00000000       0.00000000       0.00000000       1902.84265      -1.56129134    
   1.69323206      0.872922003      -0.00000000       1902.84265      -1.56129134    
   1.72007501      0.818759024      -0.00000000       1902.84265      -1.56129134    
   1.74518704      0.763773024      -0.00000000       1902.84265      -1.56129134    
   1.60258806       1.02992105      -0.00000000       2556.82251      -1.56445992    
   1.63445795      0.978555024      -0.00000000       2556.82251      -1.56445992    
   0.00000000       0.00000000       0.00000000       2556.82251      -1.56445992    
   1.56910396       1.08024895      -0.00000000       2556.82251      -1.56445992    
   1.45931494       1.22450995      -0.00000000       3212.00537      -1.56726730    
   1.49743104       1.17759299      -0.00000000       3212.00537      -1.56726730    
   0.00000000       0.00000000       0.00000000       3212.00537      -1.56726730    
   1.41972899       1.27019501      -0.00000000       3212.00537      -1.56726730    
   0.00000000       0.00000000       0.00000000       2893.38989      -1.56602383    
   1.49743104       1.17759299      -0.00000000       2893.38989      -1.56602383    
   1.53403997       1.12949002      -0.00000000       2893.38989      -1.56602383    
   1.56910396       1.08024895      -0.00000000       2893.38989      -1.56602383    
   1.37871301       1.31459999      -0.00000000       3441.39526      -1.56728673    
   1.41972899       1.27019501      -0.00000000       3441.39526      -1.56728673    
   0.00000000       0.00000000       0.00000000       3441.39526      -1.56728673    
   1.33631003       1.35768199      -0.00000000       3441.39526      -1.56728673    
   1.20120299       1.47855902      -0.00000000       3450.71387      -1.56153572    
   1.24750996       1.43970299      -0.00000000       3450.71387      -1.56153572    
   0.00000000       0.00000000       0.00000000       3450.71387      -1.56153572    
   1.15368605       1.51592600      -0.00000000       3450.71387      -1.56153572    
   0.00000000       0.00000000       0.00000000       3492.20044      -1.56497228    
   1.24750996       1.43970299      -0.00000000       3492.20044      -1.56497228    
   1.29255998       1.39939702      -0.00000000       3492.20044      -1.56497228    
   1.33631003       1.35768199      -0.00000000       3492.20044      -1.56497228    
   1.10500801       1.55176699      -0.00000000       3393.84912      -1.55804431    
   1.15368605       1.51592600      -0.00000000       3393.84912      -1.55804431    
   0.00000000       0.00000000       0.00000000       3393.84912      -1.55804431    
   1.05521798       1.58604598      -0.00000000       3393.84912      -1.55804431    
  0.899676025       1.67916906      -0.00000000       3305.33911      -1.55201709    
  0.952499986       1.64977801      -0.00000000       3305.33911      -1.55201709    
   0.00000000       0.00000000       0.00000000       3305.33911      -1.55201709    
  0.845947027       1.70686805      -0.00000000       3305.33911      -1.55201709    
   0.00000000       0.00000000       0.00000000       3342.60791      -1.55481648    
  0.952499986       1.64977801      -0.00000000       3342.60791      -1.55481648    
   1.00436401       1.61872697      -0.00000000       3342.60791      -1.55481648    
   1.05521798       1.58604598      -0.00000000       3342.60791      -1.55481648    
  0.791365981       1.73284900      -0.00000000       3285.58643      -1.54974282    
  0.845947027       1.70686805      -0.00000000       3285.58643      -1.54974282    
   0.00000000       0.00000000       0.00000000       3285.58643      -1.54974282    
  0.735987008       1.75708497      -0.00000000       3285.58643      -1.54974282    
  0.565632999       1.81908906      -0.00000000       3285.86206      -1.54667532    
  0.623063982       1.80022705      -0.00000000       3285.86206      -1.54667532    
   0.00000000       0.00000000       0.00000000       3285.86206      -1.54667532    
  0.507632971       1.83611906      -0.00000000       3285.86206      -1.54667532    
   0.00000000       0.00000000       0.00000000       3280.41724      -1.54797804    
  0.623063982       1.80022705      -0.00000000       3280.41724      -1.54797804    
  0.679867983       1.77955198      -0.00000000       3280.41724      -1.54797804    
  0.735987008       1.75708497      -0.00000000       3280.41724      -1.54797804    
  0.449120998       1.85130095      -0.00000000       3298.50098      -1.54576671    
  0.507632971       1.83611906      -0.00000000       3298.50098      -1.54576671    
   0.00000000       0.00000000       0.00000000       3298.50098      -1.54576671    
  0.390157014       1.86461902      -0.00000000       3298.50098      -1.54576671    
  0.211146995       1.89326203      -0.00000000       3326.80176      -1.54482293    
  0.271109998       1.88560998      -0.00000000       3326.80176      -1.54482293    
   0.00000000       0.00000000       0.00000000       3326.80176      -1.54482293    
  0.150970995       1.89900804      -0.00000000       3326.80176      -1.54482293    
   0.00000000       0.00000000       0.00000000       3313.77930      -1.54517913    
  0.271109998       1.88560998      -0.00000000       3313.77930      -1.54517913    
  0.330799997       1.87605906      -0.00000000       3313.77930      -1.54517913    
  0.390157014       1.86461902      -0.00000000       3313.77930      -1.54517913    
   9.06440020E-02   1.90284204      -0.00000000       3335.42969      -1.54465508    
  0.150970995       1.89900804      -0.00000000       3335.42969      -1.54465508    
   0.00000000       0.00000000       0.00000000       3335.42969      -1.54465508    
   3.02249994E-02   1.90476000      -0.00000000       3335.42969      -1.54465508    
 -0.150970995       1.89900804      -0.00000000       3341.38013      -1.54490781    
  -9.06440020E-02   1.90284204      -0.00000000       3341.38013      -1.54490781    
   0.00000000       0.00000000       0.00000000       3341.38013      -1.54490781    
 -0.211146995       1.89326203      -0.00000000       3341.38013      -1.54490781    
   0.00000000       0.00000000       0.00000000       3340.58472      -1.54468822    
  -9.06440020E-02   1.90284204      -0.00000000       3340.58472      -1.54468822    
  -3.02249994E-02   1.90476000      -0.00000000       3340.58472      -1.54468822    
   3.02249994E-02   1.90476000      -0.00000000       3340.58472      -1.54468822    
 -0.271109998       1.88560998      -0.00000000       3338.11182      -1.54531956    
 -0.211146995       1.89326203      -0.00000000       3338.11182      -1.54531956    
   0.00000000       0.00000000       0.00000000       3338.11182      -1.54531956    
 -0.330799997       1.87605906      -0.00000000       3338.11182      -1.54531956    
 -0.507632971       1.83611906      -0.00000000       3335.27393      -1.54699183    
 -0.449120998       1.85130095      -0.00000000       3335.27393      -1.54699183    
   0.00000000       0.00000000       0.00000000       3335.27393      -1.54699183    
 -0.565632999       1.81908906      -0.00000000       3335.27393      -1.54699183    
   0.00000000       0.00000000       0.00000000       3333.98047      -1.54597771    
 -0.449120998       1.85130095      -0.00000000       3333.98047      -1.54597771    
 -0.390157014       1.86461902      -0.00000000       3333.98047      -1.54597771    
 -0.330799997       1.87605906      -0.00000000       3333.98047      -1.54597771    
 -0.623063982       1.80022705      -0.00000000       3343.69043      -1.54838443    
 -0.565632999       1.81908906      -0.00000000       3343.69043      -1.54838443    
   0.00000000       0.00000000       0.00000000       3343.69043      -1.54838443    
 -0.679867983       1.77955198      -0.00000000       3343.69043      -1.54838443    
 -0.845947027       1.70686805      -0.00000000       3398.46265      -1.55255818    
 -0.791365981       1.73284900      -0.00000000       3398.46265      -1.55255818    
   0.00000000       0.00000000       0.00000000       3398.46265      -1.55255818    
 -0.899676025       1.67916906      -0.00000000       3398.46265      -1.55255818    
   0.00000000       0.00000000       0.00000000       3363.38550      -1.55022740    
 -0.791365981       1.73284900      -0.00000000       3363.38550      -1.55022740    
 -0.735987008       1.75708497      -0.00000000       3363.38550      -1.55022740    
 -0.679867983       1.77955198      -0.00000000       3363.38550      -1.55022740    
 -0.952499986       1.64977801      -0.00000000       3448.42651      -1.55534422    
 -0.899676025       1.67916906      -0.00000000       3448.42651      -1.55534422    
   0.00000000       0.00000000       0.00000000       3448.42651      -1.55534422    
  -1.00436401       1.61872697      -0.00000000       3448.42651      -1.55534422    
  -1.15368605       1.51592600      -0.00000000       3570.11401      -1.56183112    
  -1.10500801       1.55176699      -0.00000000       3570.11401      -1.56183112    
   0.00000000       0.00000000       0.00000000       3570.11401      -1.56183112    
  -1.20120299       1.47855902      -0.00000000       3570.11401      -1.56183112    
   0.00000000       0.00000000       0.00000000       3508.53491      -1.55848479    
  -1.10500801       1.55176699      -0.00000000       3508.53491      -1.55848479    
  -1.05521798       1.58604598      -0.00000000       3508.53491      -1.55848479    
  -1.00436401       1.61872697      -0.00000000       3508.53491      -1.55848479    
  -1.24750996       1.43970299      -0.00000000       3611.45435      -1.56508386    
  -1.20120299       1.47855902      -0.00000000       3611.45435      -1.56508386    
   0.00000000       0.00000000       0.00000000       3611.45435      -1.56508386    
  -1.29255998       1.39939702      -0.00000000       3611.45435      -1.56508386    
  -1.41972899       1.27019501      -0.00000000       3321.14722      -1.56713760    
  -1.37871301       1.31459999      -0.00000000       3321.14722      -1.56713760    
   0.00000000       0.00000000       0.00000000       3321.14722      -1.56713760    
  -1.45931494       1.22450995      -0.00000000       3321.14722      -1.56713760    
   0.00000000       0.00000000       0.00000000       3558.84229      -1.56727362    
  -1.37871301       1.31459999      -0.00000000       3558.84229      -1.56727362    
  -1.33631003       1.35768199      -0.00000000       3558.84229      -1.56727362    
  -1.29255998       1.39939702      -0.00000000       3558.84229      -1.56727362    
  -1.49743104       1.17759299      -0.00000000       2989.18799      -1.56570530    
  -1.45931494       1.22450995      -0.00000000       2989.18799      -1.56570530    
   0.00000000       0.00000000       0.00000000       2989.18799      -1.56570530    
  -1.53403997       1.12949002      -0.00000000       2989.18799      -1.56570530    
  -1.63445795      0.978555024      -0.00000000       2303.75537      -1.56212974    
  -1.60258806       1.02992105      -0.00000000       2303.75537      -1.56212974    
   0.00000000       0.00000000       0.00000000       2303.75537      -1.56212974    
  -1.66468298      0.926204979      -0.00000000       2303.75537      -1.56212974    
   0.00000000       0.00000000       0.00000000       2642.26733      -1.56393850    
  -1.60258806       1.02992105      -0.00000000       2642.26733      -1.56393850    
  -1.56910396       1.08024895      -0.00000000       2642.26733      -1.56393850    
  -1.53403997       1.12949002      -0.00000000       2642.26733      -1.56393850    
  -1.69323206      0.872922003      -0.00000000       1982.63916      -1.56043851    
  -1.66468298      0.926204979      -0.00000000       1982.63916      -1.56043851    
   0.00000000       0.00000000       0.00000000       1982.63916      -1.56043851    
  -1.72007501      0.818759024      -0.00000000       1982.63916      -1.56043851    
  -1.79011405      0.651548028      -0.00000000       1399.14600      -1.55784881    
  -1.76854098      0.708016992      -0.00000000       1399.14600      -1.55784881    
   0.00000000       0.00000000       0.00000000       1399.14600      -1.55784881    
  -1.80988598      0.594424009      -0.00000000       1399.14600      -1.55784881    
   0.00000000       0.00000000       0.00000000       1682.06128      -1.55899692    
  -1.76854098      0.708016992      -0.00000000       1682.06128      -1.55899692    
  -1.74518704      0.763773024      -0.00000000       1682.06128      -1.55899692    
  -1.72007501      0.818759024      -0.00000000       1682.06128      -1.55899692    
  -1.82783401      0.536701024      -0.00000000       1129.72949      -1.55700552    
  -1.80988598      0.594424009      -0.00000000       1129.72949      -1.55700552    
   0.00000000       0.00000000       0.00000000       1129.72949      -1.55700552    
  -1.84394205      0.478437006      -0.00000000       1129.72949      -1.55700552    
  -1.88107097      0.300992996      -0.00000000       615.086731      -1.55609524    
  -1.87057400      0.360523999      -0.00000000       615.086731      -1.55609524    
   0.00000000       0.00000000       0.00000000       615.086731      -1.55609524    
  -1.88967395      0.241159007      -0.00000000       615.086731      -1.55609524    
   0.00000000       0.00000000       0.00000000       869.234863      -1.55642056    
  -1.87057400      0.360523999      -0.00000000       869.234863      -1.55642056    
  -1.85819399      0.419692010      -0.00000000       869.234863      -1.55642056    
  -1.84394205      0.478437006      -0.00000000       869.234863      -1.55642056    
  -1.89637399      0.181081995      -0.00000000       363.192841      -1.55589414    
  -1.88967395      0.241159007      -0.00000000       363.192841      -1.55589414    
   0.00000000       0.00000000       0.00000000       363.192841      -1.55589414    
  -1.90116501      0.120823003      -0.00000000       363.192841      -1.55589414    
  -1.90404105      -6.04420006E-02  -0.00000000       136.849136       1.58608568    
  -1.90499997       0.00000000      -0.00000000       136.849136       1.58608568    
   0.00000000       0.00000000       0.00000000       136.849136       1.58608568    
  -1.90116501     -0.120823003      -0.00000000       136.849136       1.58608568    
   0.00000000       0.00000000       0.00000000       112.825821      -1.55588663    
  -1.90499997       0.00000000      -0.00000000       112.825821      -1.55588663    
  -1.90404105       6.04420006E-02  -0.00000000       112.825821      -1.55588663    
  -1.90116501      0.120823003      -0.00000000       112.825821      -1.55588663    
  -1.89637399     -0.181081995      -0.00000000       387.528564       1.58579099    
  -1.90116501     -0.120823003      -0.00000000       387.528564       1.58579099    
   0.00000000       0.00000000       0.00000000       387.528564       1.58579099    
  -1.88967395     -0.241159007      -0.00000000       387.528564       1.58579099    
  -1.85819399     -0.419692010      -0.00000000       895.396118       1.58512318    
  -1.87057400     -0.360523999      -0.00000000       895.396118       1.58512318    
   0.00000000       0.00000000       0.00000000       895.396118       1.58512318    
  -1.84394205     -0.478437006      -0.00000000       895.396118       1.58512318    
   0.00000000       0.00000000       0.00000000       639.921448       1.58551252    
  -1.87057400     -0.360523999      -0.00000000       639.921448       1.58551252    
  -1.88107097     -0.300992996      -0.00000000       639.921448       1.58551252    
  -1.88967395     -0.241159007      -0.00000000       639.921448       1.58551252    
  -1.82783401     -0.536701024      -0.00000000       1158.04138       1.58446503    
  -1.84394205     -0.478437006      -0.00000000       1158.04138       1.58446503    
   0.00000000       0.00000000       0.00000000       1158.04138       1.58446503    
  -1.80988598     -0.594424009      -0.00000000       1158.04138       1.58446503    
  -1.74518704     -0.763773024      -0.00000000       1715.40295       1.58240438    
  -1.76854098     -0.708016992      -0.00000000       1715.40295       1.58240438    
   0.00000000       0.00000000       0.00000000       1715.40295       1.58240438    
  -1.72007501     -0.818759024      -0.00000000       1715.40295       1.58240438    
   0.00000000       0.00000000       0.00000000       1429.63904       1.58358717    
  -1.76854098     -0.708016992      -0.00000000       1429.63904       1.58358717    
  -1.79011405     -0.651548028      -0.00000000       1429.63904       1.58358717    
  -1.80988598     -0.594424009      -0.00000000       1429.63904       1.58358717    
  -1.69323206     -0.872922003      -0.00000000       2019.05835       1.58093762    
  -1.72007501     -0.818759024      -0.00000000       2019.05835       1.58093762    
   0.00000000       0.00000000       0.00000000       2019.05835       1.58093762    
  -1.66468298     -0.926204979      -0.00000000       2019.05835       1.58093762    
  -1.56910396      -1.08024895      -0.00000000       2674.28027       1.57755601    
  -1.60258806      -1.02992105      -0.00000000       2674.28027       1.57755601    
   0.00000000       0.00000000       0.00000000       2674.28027       1.57755601    
  -1.53403997      -1.12949002      -0.00000000       2674.28027       1.57755601    
   0.00000000       0.00000000       0.00000000       2340.11841       1.57928550    
  -1.60258806      -1.02992105      -0.00000000       2340.11841       1.57928550    
  -1.63445795     -0.978555024      -0.00000000       2340.11841       1.57928550    
  -1.66468298     -0.926204979      -0.00000000       2340.11841       1.57928550    
  -1.49743104      -1.17759299      -0.00000000       3011.93262       1.57589245    
  -1.53403997      -1.12949002      -0.00000000       3011.93262       1.57589245    
   0.00000000       0.00000000       0.00000000       3011.93262       1.57589245    
  -1.45931494      -1.22450995      -0.00000000       3011.93262       1.57589245    
  -1.33631003      -1.35768199      -0.00000000       3557.93701       1.57446325    
  -1.37871301      -1.31459999      -0.00000000       3557.93701       1.57446325    
   0.00000000       0.00000000       0.00000000       3557.93701       1.57446325    
  -1.29255998      -1.39939702      -0.00000000       3557.93701       1.57446325    
   0.00000000       0.00000000       0.00000000       3331.24194       1.57455254    
  -1.37871301      -1.31459999      -0.00000000       3331.24194       1.57455254    
  -1.41972899      -1.27019501      -0.00000000       3331.24194       1.57455254    
  -1.45931494      -1.22450995      -0.00000000       3331.24194       1.57455254    
  -1.24750996      -1.43970299      -0.00000000       3600.48047       1.57672334    
  -1.29255998      -1.39939702      -0.00000000       3600.48047       1.57672334    
   0.00000000       0.00000000       0.00000000       3600.48047       1.57672334    
  -1.20120299      -1.47855902      -0.00000000       3600.48047       1.57672334    
  -1.05521798      -1.58604598      -0.00000000       3481.37646       1.58356833    
  -1.10500801      -1.55176699      -0.00000000       3481.37646       1.58356833    
   0.00000000       0.00000000       0.00000000       3481.37646       1.58356833    
  -1.00436401      -1.61872697      -0.00000000       3481.37646       1.58356833    
   0.00000000       0.00000000       0.00000000       3548.83228       1.58011031    
  -1.10500801      -1.55176699      -0.00000000       3548.83228       1.58011031    
  -1.15368605      -1.51592600      -0.00000000       3548.83228       1.58011031    
  -1.20120299      -1.47855902      -0.00000000       3548.83228       1.58011031    
 -0.952499986      -1.64977801      -0.00000000       3419.70874       1.58677876    
  -1.00436401      -1.61872697      -0.00000000       3419.70874       1.58677876    
   0.00000000       0.00000000       0.00000000       3419.70874       1.58677876    
 -0.899676025      -1.67916906      -0.00000000       3419.70874       1.58677876    
 -0.735987008      -1.75708497      -0.00000000       3343.18481       1.59185863    
 -0.791365981      -1.73284900      -0.00000000       3343.18481       1.59185863    
   0.00000000       0.00000000       0.00000000       3343.18481       1.59185863    
 -0.679867983      -1.77955198      -0.00000000       3343.18481       1.59185863    
   0.00000000       0.00000000       0.00000000       3372.45703       1.58957398    
 -0.791365981      -1.73284900      -0.00000000       3372.45703       1.58957398    
 -0.845947027      -1.70686805      -0.00000000       3372.45703       1.58957398    
 -0.899676025      -1.67916906      -0.00000000       3372.45703       1.58957398    
 -0.623063982      -1.80022705      -0.00000000       3328.74243       1.59364307    
 -0.679867983      -1.77955198      -0.00000000       3328.74243       1.59364307    
   0.00000000       0.00000000       0.00000000       3328.74243       1.59364307    
 -0.565632999      -1.81908906      -0.00000000       3328.74243       1.59364307    
 -0.390157014      -1.86461902      -0.00000000       3329.58105       1.59590518    
 -0.449120998      -1.85130095      -0.00000000       3329.58105       1.59590518    
   0.00000000       0.00000000       0.00000000       3329.58105       1.59590518    
 -0.330799997      -1.87605906      -0.00000000       3329.58105       1.59590518    
   0.00000000       0.00000000       0.00000000       3325.39697       1.59497058    
 -0.449120998      -1.85130095      -0.00000000       3325.39697       1.59497058    
 -0.507632971      -1.83611906      -0.00000000       3325.39697       1.59497058    
 -0.565632999      -1.81908906      -0.00000000       3325.39697       1.59497058    
 -0.271109998      -1.88560998      -0.00000000       3336.53540       1.59652114    
 -0.330799997      -1.87605906      -0.00000000       3336.53540       1.59652114    
   0.00000000       0.00000000       0.00000000       3336.53540       1.59652114    
 -0.211146995      -1.89326203      -0.00000000       3336.53540       1.59652114    
  -3.02249994E-02  -1.90476000      -0.00000000       3341.38379       1.59711611    
  -9.06440020E-02  -1.90284204      -0.00000000       3341.38379       1.59711611    
   0.00000000       0.00000000       0.00000000       3341.38379       1.59711611    
   3.02249994E-02  -1.90476000      -0.00000000       3341.38379       1.59711611    
   0.00000000       0.00000000       0.00000000       3341.15796       1.59691143    
  -9.06440020E-02  -1.90284204      -0.00000000       3341.15796       1.59691143    
 -0.150970995      -1.89900804      -0.00000000       3341.15796       1.59691143    
 -0.211146995      -1.89326203      -0.00000000       3341.15796       1.59691143    
   9.06440020E-02  -1.90284204      -0.00000000       3338.13867       1.59711969    
   3.02249994E-02  -1.90476000      -0.00000000       3338.13867       1.59711969    
   0.00000000       0.00000000       0.00000000       3338.13867       1.59711969    
  0.150970995      -1.89900804      -0.00000000       3338.13867       1.59711969    
  0.330799997      -1.87605906      -0.00000000       3318.96240       1.59655845    
  0.271109998      -1.88560998      -0.00000000       3318.96240       1.59655845    
   0.00000000       0.00000000       0.00000000       3318.96240       1.59655845    
  0.390157014      -1.86461902      -0.00000000       3318.96240       1.59655845    
   0.00000000       0.00000000       0.00000000       3330.55493       1.59693515    
  0.271109998      -1.88560998      -0.00000000       3330.55493       1.59693515    
  0.211146995      -1.89326203      -0.00000000       3330.55493       1.59693515    
  0.150970995      -1.89900804      -0.00000000       3330.55493       1.59693515    
  0.449120998      -1.85130095      -0.00000000       3306.59424       1.59592783    
  0.390157014      -1.86461902      -0.00000000       3306.59424       1.59592783    
   0.00000000       0.00000000       0.00000000       3306.59424       1.59592783    
  0.507632971      -1.83611906      -0.00000000       3306.59424       1.59592783    
  0.679867983      -1.77955198      -0.00000000       3299.03857       1.59356809    
  0.623063982      -1.80022705      -0.00000000       3299.03857       1.59356809    
   0.00000000       0.00000000       0.00000000       3299.03857       1.59356809    
  0.735987008      -1.75708497      -0.00000000       3299.03857       1.59356809    
   0.00000000       0.00000000       0.00000000       3299.47583       1.59493876    
  0.623063982      -1.80022705      -0.00000000       3299.47583       1.59493876    
  0.565632999      -1.81908906      -0.00000000       3299.47583       1.59493876    
  0.507632971      -1.83611906      -0.00000000       3299.47583       1.59493876    
  0.791365981      -1.73284900      -0.00000000       3309.80688       1.59173810    
  0.735987008      -1.75708497      -0.00000000       3309.80688       1.59173810    
   0.00000000       0.00000000       0.00000000       3309.80688       1.59173810    
  0.845947027      -1.70686805      -0.00000000       3309.80688       1.59173810    
   1.00436401      -1.61872697      -0.00000000       3375.77393       1.58661056    
  0.952499986      -1.64977801      -0.00000000       3375.77393       1.58661056    
   0.00000000       0.00000000       0.00000000       3375.77393       1.58661056    
   1.05521798      -1.58604598      -0.00000000       3375.77393       1.58661056    
   0.00000000       0.00000000       0.00000000       3335.54395       1.58940828    
  0.952499986      -1.64977801      -0.00000000       3335.54395       1.58940828    
  0.899676025      -1.67916906      -0.00000000       3335.54395       1.58940828    
  0.845947027      -1.70686805      -0.00000000       3335.54395       1.58940828    
   1.10500801      -1.55176699      -0.00000000       3425.85132       1.58344507    
   1.05521798      -1.58604598      -0.00000000       3425.85132       1.58344507    
   0.00000000       0.00000000       0.00000000       3425.85132       1.58344507    
   1.15368605      -1.51592600      -0.00000000       3425.85132       1.58344507    
   1.29255998      -1.39939702      -0.00000000       3509.18237       1.57675302    
   1.24750996      -1.43970299      -0.00000000       3509.18237       1.57675302    
   0.00000000       0.00000000       0.00000000       3509.18237       1.57675302    
   1.33631003      -1.35768199      -0.00000000       3509.18237       1.57675302    
   0.00000000       0.00000000       0.00000000       3477.40112       1.58006001    
   1.24750996      -1.43970299      -0.00000000       3477.40112       1.58006001    
   1.20120299      -1.47855902      -0.00000000       3477.40112       1.58006001    