 VARIABLES="X" "Y" "Z" "abs(p) (Pa)" "angle(p) (rad)"
ZONE N=    802,E =     800, F=FEPOINT, ET=QUADRILATERAL
   1.90499997       0.00000000      -0.00000000       1.96538305       1.88245380    
   1.90404105      -6.04420006E-02  -0.00000000       1.96538305       1.88245380    
   0.00000000       0.00000000       0.00000000       1.96538305       1.88245380    
   1.90404105       6.04420006E-02  -0.00000000       1.96538305       1.88245380    
   1.88967395      0.241159007      -0.00000000       1.97710836       1.88046753    
   1.89637399      0.181081995      -0.00000000       1.97710836       1.88046753    
   0.00000000       0.00000000       0.00000000       1.97710836       1.88046753    
   1.88107097      0.300992996      -0.00000000       1.97710836       1.88046753    
   0.00000000       0.00000000       0.00000000       1.96824634       1.88196707    
   1.89637399      0.181081995      -0.00000000       1.96824634       1.88196707    
   1.90116501      0.120823003      -0.00000000       1.96824634       1.88196707    
   1.90404105       6.04420006E-02  -0.00000000       1.96824634       1.88196707    
   1.87057400      0.360523999      -0.00000000       1.99363482       1.87770891    
   1.88107097      0.300992996      -0.00000000       1.99363482       1.87770891    
   0.00000000       0.00000000       0.00000000       1.99363482       1.87770891    
   1.85819399      0.419692010      -0.00000000       1.99363482       1.87770891    
   1.80988598      0.594424009      -0.00000000       2.05869913       1.86731887    
   1.82783401      0.536701024      -0.00000000       2.05869913       1.86731887    
   0.00000000       0.00000000       0.00000000       2.05869913       1.86731887    
   1.79011405      0.651548028      -0.00000000       2.05869913       1.86731887    
   0.00000000       0.00000000       0.00000000       2.01959372       1.87347746    
   1.82783401      0.536701024      -0.00000000       2.01959372       1.87347746    
   1.84394205      0.478437006      -0.00000000       2.01959372       1.87347746    
   1.85819399      0.419692010      -0.00000000       2.01959372       1.87347746    
   1.76854098      0.708016992      -0.00000000       2.11174369       1.85934126    
   1.79011405      0.651548028      -0.00000000       2.11174369       1.85934126    
   0.00000000       0.00000000       0.00000000       2.11174369       1.85934126    
   1.74518704      0.763773024      -0.00000000       2.11174369       1.85934126    
   1.66468298      0.926204979      -0.00000000       2.26301980       1.83865726    
   1.69323206      0.872922003      -0.00000000       2.26301980       1.83865726    
   0.00000000       0.00000000       0.00000000       2.26301980       1.83865726    
   1.63445795      0.978555024      -0.00000000       2.26301980       1.83865726    
   0.00000000       0.00000000       0.00000000       2.18004489       1.84964728    
   1.69323206      0.872922003      -0.00000000       2.18004489       1.84964728    
   1.72007501      0.818759024      -0.00000000       2.18004489       1.84964728    
   1.74518704      0.763773024      -0.00000000       2.18004489       1.84964728    
   1.60258806       1.02992105      -0.00000000       2.35791016       1.82702339    
   1.63445795      0.978555024      -0.00000000       2.35791016       1.82702339    
   0.00000000       0.00000000       0.00000000       2.35791016       1.82702339    
   1.56910396       1.08024895      -0.00000000       2.35791016       1.82702339    
   1.45931494       1.22450995      -0.00000000       2.54337430       1.80660558    
   1.49743104       1.17759299      -0.00000000       2.54337430       1.80660558    
   0.00000000       0.00000000       0.00000000       2.54337430       1.80660558    
   1.41972899       1.27019501      -0.00000000       2.54337430       1.80660558    
   0.00000000       0.00000000       0.00000000       2.45568562       1.81592357    
   1.49743104       1.17759299      -0.00000000       2.45568562       1.81592357    
   1.53403997       1.12949002      -0.00000000       2.45568562       1.81592357    
   1.56910396       1.08024895      -0.00000000       2.45568562       1.81592357    
   1.37871301       1.31459999      -0.00000000       2.58367538       1.80247319    
   1.41972899       1.27019501      -0.00000000       2.58367538       1.80247319    
   0.00000000       0.00000000       0.00000000       2.58367538       1.80247319    
   1.33631003       1.35768199      -0.00000000       2.58367538       1.80247319    
   1.20120299       1.47855902      -0.00000000       2.43308425       1.81829274    
   1.24750996       1.43970299      -0.00000000       2.43308425       1.81829274    
   0.00000000       0.00000000       0.00000000       2.43308425       1.81829274    
   1.15368605       1.51592600      -0.00000000       2.43308425       1.81829274    
   0.00000000       0.00000000       0.00000000       2.53218365       1.80767751    
   1.24750996       1.43970299      -0.00000000       2.53218365       1.80767751    
   1.29255998       1.39939702      -0.00000000       2.53218365       1.80767751    
   1.33631003       1.35768199      -0.00000000       2.53218365       1.80767751    
   1.10500801       1.55176699      -0.00000000       2.32730699       1.83054638    
   1.15368605       1.51592600      -0.00000000       2.32730699       1.83054638    
   0.00000000       0.00000000       0.00000000       2.32730699       1.83054638    
   1.05521798       1.58604598      -0.00000000       2.32730699       1.83054638    
  0.899676025       1.67916906      -0.00000000       2.14624166       1.85426378    
  0.952499986       1.64977801      -0.00000000       2.14624166       1.85426378    
   0.00000000       0.00000000       0.00000000       2.14624166       1.85426378    
  0.845947027       1.70686805      -0.00000000       2.14624166       1.85426378    
   0.00000000       0.00000000       0.00000000       2.22948813       1.84288228    
  0.952499986       1.64977801      -0.00000000       2.22948813       1.84288228    
   1.00436401       1.61872697      -0.00000000       2.22948813       1.84288228    
   1.05521798       1.58604598      -0.00000000       2.22948813       1.84288228    
  0.791365981       1.73284900      -0.00000000       2.07891369       1.86414278    
  0.845947027       1.70686805      -0.00000000       2.07891369       1.86414278    
   0.00000000       0.00000000       0.00000000       2.07891369       1.86414278    
  0.735987008       1.75708497      -0.00000000       2.07891369       1.86414278    
  0.565632999       1.81908906      -0.00000000       1.99040854       1.87817800    
  0.623063982       1.80022705      -0.00000000       1.99040854       1.87817800    
   0.00000000       0.00000000       0.00000000       1.99040854       1.87817800    
  0.507632971       1.83611906      -0.00000000       1.99040854       1.87817800    
   0.00000000       0.00000000       0.00000000       2.02747488       1.87214255    
  0.623063982       1.80022705      -0.00000000       2.02747488       1.87214255    
  0.679867983       1.77955198      -0.00000000       2.02747488       1.87214255    
  0.735987008       1.75708497      -0.00000000       2.02747488       1.87214255    
  0.449120998       1.85130095      -0.00000000       1.96493363       1.88246870    
  0.507632971       1.83611906      -0.00000000       1.96493363       1.88246870    
   0.00000000       0.00000000       0.00000000       1.96493363       1.88246870    
  0.390157014       1.86461902      -0.00000000       1.96493363       1.88246870    
  0.211146995       1.89326203      -0.00000000       1.93872511       1.88701904    
  0.271109998       1.88560998      -0.00000000       1.93872511       1.88701904    
   0.00000000       0.00000000       0.00000000       1.93872511       1.88701904    
  0.150970995       1.89900804      -0.00000000       1.93872511       1.88701904    
   0.00000000       0.00000000       0.00000000       1.94796574       1.88539505    
  0.271109998       1.88560998      -0.00000000       1.94796574       1.88539505    
  0.330799997       1.87605906      -0.00000000       1.94796574       1.88539505    
  0.390157014       1.86461902      -0.00000000       1.94796574       1.88539505    
   9.06440020E-02   1.90284204      -0.00000000       1.93488777       1.88769960    
  0.150970995       1.89900804      -0.00000000       1.93488777       1.88769960    
   0.00000000       0.00000000       0.00000000       1.93488777       1.88769960    
   3.02249994E-02   1.90476000      -0.00000000       1.93488777       1.88769960    
 -0.150970995       1.89900804      -0.00000000       1.93936110       1.88690364    
  -9.06440020E-02   1.90284204      -0.00000000       1.93936110       1.88690364    
   0.00000000       0.00000000       0.00000000       1.93936110       1.88690364    
 -0.211146995       1.89326203      -0.00000000       1.93936110       1.88690364    
   0.00000000       0.00000000       0.00000000       1.93496513       1.88768375    
  -9.06440020E-02   1.90284204      -0.00000000       1.93496513       1.88768375    
  -3.02249994E-02   1.90476000      -0.00000000       1.93496513       1.88768375    
   3.02249994E-02   1.90476000      -0.00000000       1.93496513       1.88768375    
 -0.271109998       1.88560998      -0.00000000       1.95066023       1.88492692    
 -0.211146995       1.89326203      -0.00000000       1.95066023       1.88492692    
   0.00000000       0.00000000       0.00000000       1.95066023       1.88492692    
 -0.330799997       1.87605906      -0.00000000       1.95066023       1.88492692    
 -0.507632971       1.83611906      -0.00000000       1.99777877       1.87696671    
 -0.449120998       1.85130095      -0.00000000       1.99777877       1.87696671    
   0.00000000       0.00000000       0.00000000       1.99777877       1.87696671    
 -0.565632999       1.81908906      -0.00000000       1.99777877       1.87696671    
   0.00000000       0.00000000       0.00000000       1.96957588       1.88168025    
 -0.449120998       1.85130095      -0.00000000       1.96957588       1.88168025    
 -0.390157014       1.86461902      -0.00000000       1.96957588       1.88168025    
 -0.330799997       1.87605906      -0.00000000       1.96957588       1.88168025    
 -0.623063982       1.80022705      -0.00000000       2.03908420       1.87031722    
 -0.565632999       1.81908906      -0.00000000       2.03908420       1.87031722    
   0.00000000       0.00000000       0.00000000       2.03908420       1.87031722    
 -0.679867983       1.77955198      -0.00000000       2.03908420       1.87031722    
 -0.845947027       1.70686805      -0.00000000       2.16468239       1.85170841    
 -0.791365981       1.73284900      -0.00000000       2.16468239       1.85170841    
   0.00000000       0.00000000       0.00000000       2.16468239       1.85170841    
 -0.899676025       1.67916906      -0.00000000       2.16468239       1.85170841    
   0.00000000       0.00000000       0.00000000       2.09425521       1.86186278    
 -0.791365981       1.73284900      -0.00000000       2.09425521       1.86186278    
 -0.735987008       1.75708497      -0.00000000       2.09425521       1.86186278    
 -0.679867983       1.77955198      -0.00000000       2.09425521       1.86186278    
 -0.952499986       1.64977801      -0.00000000       2.24964309       1.84030986    
 -0.899676025       1.67916906      -0.00000000       2.24964309       1.84030986    
   0.00000000       0.00000000       0.00000000       2.24964309       1.84030986    
  -1.00436401       1.61872697      -0.00000000       2.24964309       1.84030986    
  -1.15368605       1.51592600      -0.00000000       2.44477010       1.81705034    
  -1.10500801       1.55176699      -0.00000000       2.44477010       1.81705034    
   0.00000000       0.00000000       0.00000000       2.44477010       1.81705034    
  -1.20120299       1.47855902      -0.00000000       2.44477010       1.81705034    
   0.00000000       0.00000000       0.00000000       2.34595799       1.82837248    
  -1.10500801       1.55176699      -0.00000000       2.34595799       1.82837248    
  -1.05521798       1.58604598      -0.00000000       2.34595799       1.82837248    
  -1.00436401       1.61872697      -0.00000000       2.34595799       1.82837248    
  -1.24750996       1.43970299      -0.00000000       2.53328085       1.80757058    
  -1.20120299       1.47855902      -0.00000000       2.53328085       1.80757058    
   0.00000000       0.00000000       0.00000000       2.53328085       1.80757058    
  -1.29255998       1.39939702      -0.00000000       2.53328085       1.80757058    
  -1.41972899       1.27019501      -0.00000000       2.52309942       1.80855060    
  -1.37871301       1.31459999      -0.00000000       2.52309942       1.80855060    
   0.00000000       0.00000000       0.00000000       2.52309942       1.80855060    
  -1.45931494       1.22450995      -0.00000000       2.52309942       1.80855060    
   0.00000000       0.00000000       0.00000000       2.57408977       1.80335820    
  -1.37871301       1.31459999      -0.00000000       2.57408977       1.80335820    
  -1.33631003       1.35768199      -0.00000000       2.57408977       1.80335820    
  -1.29255998       1.39939702      -0.00000000       2.57408977       1.80335820    
  -1.49743104       1.17759299      -0.00000000       2.42486095       1.81914771    
  -1.45931494       1.22450995      -0.00000000       2.42486095       1.81914771    
   0.00000000       0.00000000       0.00000000       2.42486095       1.81914771    
  -1.53403997       1.12949002      -0.00000000       2.42486095       1.81914771    
  -1.63445795      0.978555024      -0.00000000       2.22318125       1.84365940    
  -1.60258806       1.02992105      -0.00000000       2.22318125       1.84365940    
   0.00000000       0.00000000       0.00000000       2.22318125       1.84365940    
  -1.66468298      0.926204979      -0.00000000       2.22318125       1.84365940    
   0.00000000       0.00000000       0.00000000       2.32015014       1.83135712    
  -1.60258806       1.02992105      -0.00000000       2.32015014       1.83135712    
  -1.56910396       1.08024895      -0.00000000       2.32015014       1.83135712    
  -1.53403997       1.12949002      -0.00000000       2.32015014       1.83135712    
  -1.69323206      0.872922003      -0.00000000       2.14058137       1.85501444    
  -1.66468298      0.926204979      -0.00000000       2.14058137       1.85501444    
   0.00000000       0.00000000       0.00000000       2.14058137       1.85501444    
  -1.72007501      0.818759024      -0.00000000       2.14058137       1.85501444    
  -1.79011405      0.651548028      -0.00000000       2.02279401       1.87283516    
  -1.76854098      0.708016992      -0.00000000       2.02279401       1.87283516    
   0.00000000       0.00000000       0.00000000       2.02279401       1.87283516    
  -1.80988598      0.594424009      -0.00000000       2.02279401       1.87283516    
   0.00000000       0.00000000       0.00000000       2.07376790       1.86486804    
  -1.76854098      0.708016992      -0.00000000       2.07376790       1.86486804    
  -1.74518704      0.763773024      -0.00000000       2.07376790       1.86486804    
  -1.72007501      0.818759024      -0.00000000       2.07376790       1.86486804    
  -1.82783401      0.536701024      -0.00000000       1.98612642       1.87883341    
  -1.80988598      0.594424009      -0.00000000       1.98612642       1.87883341    
   0.00000000       0.00000000       0.00000000       1.98612642       1.87883341    
  -1.84394205      0.478437006      -0.00000000       1.98612642       1.87883341    
  -1.88107097      0.300992996      -0.00000000       1.94437373       1.88596523    
  -1.87057400      0.360523999      -0.00000000       1.94437373       1.88596523    
   0.00000000       0.00000000       0.00000000       1.94437373       1.88596523    
  -1.88967395      0.241159007      -0.00000000       1.94437373       1.88596523    
   0.00000000       0.00000000       0.00000000       1.96103287       1.88307905    
  -1.87057400      0.360523999      -0.00000000       1.96103287       1.88307905    
  -1.85819399      0.419692010      -0.00000000       1.96103287       1.88307905    
  -1.84394205      0.478437006      -0.00000000       1.96103287       1.88307905    
  -1.89637399      0.181081995      -0.00000000       1.93541014       1.88754797    
  -1.88967395      0.241159007      -0.00000000       1.93541014       1.88754797    
   0.00000000       0.00000000       0.00000000       1.93541014       1.88754797    
  -1.90116501      0.120823003      -0.00000000       1.93541014       1.88754797    
  -1.90404105      -6.04420006E-02  -0.00000000       1.93208468       1.88814473    
  -1.90499997       0.00000000      -0.00000000       1.93208468       1.88814473    
   0.00000000       0.00000000       0.00000000       1.93208468       1.88814473    
  -1.90116501     -0.120823003      -0.00000000       1.93208468       1.88814473    
   0.00000000       0.00000000       0.00000000       1.93179917       1.88819313    
  -1.90499997       0.00000000      -0.00000000       1.93179917       1.88819313    
  -1.90404105       6.04420006E-02  -0.00000000       1.93179917       1.88819313    
  -1.90116501      0.120823003      -0.00000000       1.93179917       1.88819313    
  -1.89637399     -0.181081995      -0.00000000       1.93670201       1.88732553    
  -1.90116501     -0.120823003      -0.00000000       1.93670201       1.88732553    
   0.00000000       0.00000000       0.00000000       1.93670201       1.88732553    
  -1.88967395     -0.241159007      -0.00000000       1.93670201       1.88732553    
  -1.85819399     -0.419692010      -0.00000000       1.96742737       1.88200772    
  -1.87057400     -0.360523999      -0.00000000       1.96742737       1.88200772    
   0.00000000       0.00000000       0.00000000       1.96742737       1.88200772    
  -1.84394205     -0.478437006      -0.00000000       1.96742737       1.88200772    
   0.00000000       0.00000000       0.00000000       1.94824314       1.88530445    
  -1.87057400     -0.360523999      -0.00000000       1.94824314       1.88530445    
  -1.88107097     -0.300992996      -0.00000000       1.94824314       1.88530445    
  -1.88967395     -0.241159007      -0.00000000       1.94824314       1.88530445    
  -1.82783401     -0.536701024      -0.00000000       1.99591827       1.87724125    
  -1.84394205     -0.478437006      -0.00000000       1.99591827       1.87724125    
   0.00000000       0.00000000       0.00000000       1.99591827       1.87724125    
  -1.80988598     -0.594424009      -0.00000000       1.99591827       1.87724125    
  -1.74518704     -0.763773024      -0.00000000       2.09312749       1.86200917    
  -1.76854098     -0.708016992      -0.00000000       2.09312749       1.86200917    
   0.00000000       0.00000000       0.00000000       2.09312749       1.86200917    
  -1.72007501     -0.818759024      -0.00000000       2.09312749       1.86200917    
   0.00000000       0.00000000       0.00000000       2.03759432       1.87052500    
  -1.76854098     -0.708016992      -0.00000000       2.03759432       1.87052500    
  -1.79011405     -0.651548028      -0.00000000       2.03759432       1.87052500    
  -1.80988598     -0.594424009      -0.00000000       2.03759432       1.87052500    
  -1.69323206     -0.872922003      -0.00000000       2.16390800       1.85179877    
  -1.72007501     -0.818759024      -0.00000000       2.16390800       1.85179877    
   0.00000000       0.00000000       0.00000000       2.16390800       1.85179877    
  -1.66468298     -0.926204979      -0.00000000       2.16390800       1.85179877    
  -1.56910396      -1.08024895      -0.00000000       2.34603119       1.82835555    
  -1.60258806      -1.02992105      -0.00000000       2.34603119       1.82835555    
   0.00000000       0.00000000       0.00000000       2.34603119       1.82835555    
  -1.53403997      -1.12949002      -0.00000000       2.34603119       1.82835555    
   0.00000000       0.00000000       0.00000000       2.24926734       1.84034622    
  -1.60258806      -1.02992105      -0.00000000       2.24926734       1.84034622    
  -1.63445795     -0.978555024      -0.00000000       2.24926734       1.84034622    
  -1.66468298     -0.926204979      -0.00000000       2.24926734       1.84034622    
  -1.49743104      -1.17759299      -0.00000000       2.44531488       1.81698704    
  -1.53403997      -1.12949002      -0.00000000       2.44531488       1.81698704    
   0.00000000       0.00000000       0.00000000       2.44531488       1.81698704    
  -1.45931494      -1.22450995      -0.00000000       2.44531488       1.81698704    
  -1.33631003      -1.35768199      -0.00000000       2.57518411       1.80325568    
  -1.37871301      -1.31459999      -0.00000000       2.57518411       1.80325568    
   0.00000000       0.00000000       0.00000000       2.57518411       1.80325568    
  -1.29255998      -1.39939702      -0.00000000       2.57518411       1.80325568    
   0.00000000       0.00000000       0.00000000       2.53425288       1.80747259    
  -1.37871301      -1.31459999      -0.00000000       2.53425288       1.80747259    
  -1.41972899      -1.27019501      -0.00000000       2.53425288       1.80747259    
  -1.45931494      -1.22450995      -0.00000000       2.53425288       1.80747259    
  -1.24750996      -1.43970299      -0.00000000       2.52419806       1.80844808    
  -1.29255998      -1.39939702      -0.00000000       2.52419806       1.80844808    
   0.00000000       0.00000000       0.00000000       2.52419806       1.80844808    
  -1.20120299      -1.47855902      -0.00000000       2.52419806       1.80844808    
  -1.05521798      -1.58604598      -0.00000000       2.32158542       1.83119631    
  -1.10500801      -1.55176699      -0.00000000       2.32158542       1.83119631    
   0.00000000       0.00000000       0.00000000       2.32158542       1.83119631    
  -1.00436401      -1.61872697      -0.00000000       2.32158542       1.83119631    
   0.00000000       0.00000000       0.00000000       2.42611217       1.81901991    
  -1.10500801      -1.55176699      -0.00000000       2.42611217       1.81901991    
  -1.15368605      -1.51592600      -0.00000000       2.42611217       1.81901991    
  -1.20120299      -1.47855902      -0.00000000       2.42611217       1.81901991    
 -0.952499986      -1.64977801      -0.00000000       2.22475529       1.84346724    
  -1.00436401      -1.61872697      -0.00000000       2.22475529       1.84346724    
   0.00000000       0.00000000       0.00000000       2.22475529       1.84346724    
 -0.899676025      -1.67916906      -0.00000000       2.22475529       1.84346724    
 -0.735987008      -1.75708497      -0.00000000       2.07555914       1.86461604    
 -0.791365981      -1.73284900      -0.00000000       2.07555914       1.86461604    
   0.00000000       0.00000000       0.00000000       2.07555914       1.86461604    
 -0.679867983      -1.77955198      -0.00000000       2.07555914       1.86461604    
   0.00000000       0.00000000       0.00000000       2.14225388       1.85479295    
 -0.791365981      -1.73284900      -0.00000000       2.14225388       1.85479295    
 -0.845947027      -1.70686805      -0.00000000       2.14225388       1.85479295    
 -0.899676025      -1.67916906      -0.00000000       2.14225388       1.85479295    
 -0.623063982      -1.80022705      -0.00000000       2.02474713       1.87254548    
 -0.679867983      -1.77955198      -0.00000000       2.02474713       1.87254548    
   0.00000000       0.00000000       0.00000000       2.02474713       1.87254548    
 -0.565632999      -1.81908906      -0.00000000       2.02474713       1.87254548    
 -0.390157014      -1.86461902      -0.00000000       1.96315193       1.88274670    
 -0.449120998      -1.85130095      -0.00000000       1.96315193       1.88274670    
   0.00000000       0.00000000       0.00000000       1.96315193       1.88274670    
 -0.330799997      -1.87605906      -0.00000000       1.96315193       1.88274670    
   0.00000000       0.00000000       0.00000000       1.98817849       1.87851965    
 -0.449120998      -1.85130095      -0.00000000       1.98817849       1.87851965    
 -0.507632971      -1.83611906      -0.00000000       1.98817849       1.87851965    
 -0.565632999      -1.81908906      -0.00000000       1.98817849       1.87851965    
 -0.271109998      -1.88560998      -0.00000000       1.94656348       1.88561714    
 -0.330799997      -1.87605906      -0.00000000       1.94656348       1.88561714    
   0.00000000       0.00000000       0.00000000       1.94656348       1.88561714    
 -0.211146995      -1.89326203      -0.00000000       1.94656348       1.88561714    
  -3.02249994E-02  -1.90476000      -0.00000000       1.93403053       1.88783705    
  -9.06440020E-02  -1.90284204      -0.00000000       1.93403053       1.88783705    
   0.00000000       0.00000000       0.00000000       1.93403053       1.88783705    
   3.02249994E-02  -1.90476000      -0.00000000       1.93403053       1.88783705    
   0.00000000       0.00000000       0.00000000       1.93762827       1.88719404    
  -9.06440020E-02  -1.90284204      -0.00000000       1.93762827       1.88719404    
 -0.150970995      -1.89900804      -0.00000000       1.93762827       1.88719404    
 -0.211146995      -1.89326203      -0.00000000       1.93762827       1.88719404    
   9.06440020E-02  -1.90284204      -0.00000000       1.93432891       1.88778746    
   3.02249994E-02  -1.90476000      -0.00000000       1.93432891       1.88778746    
   0.00000000       0.00000000       0.00000000       1.93432891       1.88778746    
  0.150970995      -1.89900804      -0.00000000       1.93432891       1.88778746    
  0.330799997      -1.87605906      -0.00000000       1.95062387       1.88493288    
  0.271109998      -1.88560998      -0.00000000       1.95062387       1.88493288    
   0.00000000       0.00000000       0.00000000       1.95062387       1.88493288    
  0.390157014      -1.86461902      -0.00000000       1.95062387       1.88493288    
   0.00000000       0.00000000       0.00000000       1.93899763       1.88696313    
  0.271109998      -1.88560998      -0.00000000       1.93899763       1.88696313    
  0.211146995      -1.89326203      -0.00000000       1.93899763       1.88696313    
  0.150970995      -1.89900804      -0.00000000       1.93899763       1.88696313    
  0.449120998      -1.85130095      -0.00000000       1.96991897       1.88162613    
  0.390157014      -1.86461902      -0.00000000       1.96991897       1.88162613    
   0.00000000       0.00000000       0.00000000       1.96991897       1.88162613    
  0.507632971      -1.83611906      -0.00000000       1.96991897       1.88162613    
  0.679867983      -1.77955198      -0.00000000       2.04034686       1.87012863    
  0.623063982      -1.80022705      -0.00000000       2.04034686       1.87012863    
   0.00000000       0.00000000       0.00000000       2.04034686       1.87012863    
  0.735987008      -1.75708497      -0.00000000       2.04034686       1.87012863    
   0.00000000       0.00000000       0.00000000       1.99855494       1.87684703    
  0.623063982      -1.80022705      -0.00000000       1.99855494       1.87684703    
  0.565632999      -1.81908906      -0.00000000       1.99855494       1.87684703    
  0.507632971      -1.83611906      -0.00000000       1.99855494       1.87684703    
  0.791365981      -1.73284900      -0.00000000       2.09596539       1.86162102    
  0.735987008      -1.75708497      -0.00000000       2.09596539       1.86162102    
   0.00000000       0.00000000       0.00000000       2.09596539       1.86162102    
  0.845947027      -1.70686805      -0.00000000       2.09596539       1.86162102    
   1.00436401      -1.61872697      -0.00000000       2.25233674       1.83997786    
  0.952499986      -1.64977801      -0.00000000       2.25233674       1.83997786    
   0.00000000       0.00000000       0.00000000       2.25233674       1.83997786    
   1.05521798      -1.58604598      -0.00000000       2.25233674       1.83997786    
   0.00000000       0.00000000       0.00000000       2.16683674       1.85142171    
  0.952499986      -1.64977801      -0.00000000       2.16683674       1.85142171    
  0.899676025      -1.67916906      -0.00000000       2.16683674       1.85142171    
  0.845947027      -1.70686805      -0.00000000       2.16683674       1.85142171    
   1.10500801      -1.55176699      -0.00000000       2.34957027       1.82795942    
   1.05521798      -1.58604598      -0.00000000       2.34957027       1.82795942    
   0.00000000       0.00000000       0.00000000       2.34957027       1.82795942    
   1.15368605      -1.51592600      -0.00000000       2.34957027       1.82795942    
   1.29255998      -1.39939702      -0.00000000       2.53827834       1.80707860    
   1.24750996      -1.43970299      -0.00000000       2.53827834       1.80707860    
   0.00000000       0.00000000       0.00000000       2.53827834       1.80707860    
   1.33631003      -1.35768199      -0.00000000       2.53827834       1.80707860    
   0.00000000       0.00000000       0.00000000       2.44908118       1.81659591    
   1.24750996      -1.43970299      -0.00000000       2.44908118       1.81659591    
   1.20120299      -1.47855902      -0.00000000       2.44908118       1.81659591    