 VARIABLES="X" "Y" "Z" "abs(p) (Pa)" "angle(p) (rad)"
ZONE N=    802,E =     800, F=FEPOINT, ET=QUADRILATERAL
   1.90499997       0.00000000      -0.00000000       1386.82361       1.57294893    
   1.90404105      -6.04420006E-02  -0.00000000       1386.82361       1.57294893    
   0.00000000       0.00000000       0.00000000       1386.82361       1.57294893    
   1.90404105       6.04420006E-02  -0.00000000       1386.82361       1.57294893    
   1.88967395      0.241159007      -0.00000000       1384.33960       1.57294881    
   1.89637399      0.181081995      -0.00000000       1384.33960       1.57294881    
   0.00000000       0.00000000       0.00000000       1384.33960       1.57294881    
   1.88107097      0.300992996      -0.00000000       1384.33960       1.57294881    
   0.00000000       0.00000000       0.00000000       1386.02136       1.57294917    
   1.89637399      0.181081995      -0.00000000       1386.02136       1.57294917    
   1.90116501      0.120823003      -0.00000000       1386.02136       1.57294917    
   1.90404105       6.04420006E-02  -0.00000000       1386.02136       1.57294917    
   1.87057400      0.360523999      -0.00000000       1382.55798       1.57294655    
   1.88107097      0.300992996      -0.00000000       1382.55798       1.57294655    
   0.00000000       0.00000000       0.00000000       1382.55798       1.57294655    
   1.85819399      0.419692010      -0.00000000       1382.55798       1.57294655    
   1.80988598      0.594424009      -0.00000000       1381.74902       1.57293129    
   1.82783401      0.536701024      -0.00000000       1381.74902       1.57293129    
   0.00000000       0.00000000       0.00000000       1381.74902       1.57293129    
   1.79011405      0.651548028      -0.00000000       1381.74902       1.57293129    
   0.00000000       0.00000000       0.00000000       1381.16260       1.57294166    
   1.82783401      0.536701024      -0.00000000       1381.16260       1.57294166    
   1.84394205      0.478437006      -0.00000000       1381.16260       1.57294166    
   1.85819399      0.419692010      -0.00000000       1381.16260       1.57294166    
   1.76854098      0.708016992      -0.00000000       1385.65417       1.57291305    
   1.79011405      0.651548028      -0.00000000       1385.65417       1.57291305    
   0.00000000       0.00000000       0.00000000       1385.65417       1.57291305    
   1.74518704      0.763773024      -0.00000000       1385.65417       1.57291305    
   1.66468298      0.926204979      -0.00000000       1404.71814       1.57285213    
   1.69323206      0.872922003      -0.00000000       1404.71814       1.57285213    
   0.00000000       0.00000000       0.00000000       1404.71814       1.57285213    
   1.63445795      0.978555024      -0.00000000       1404.71814       1.57285213    
   0.00000000       0.00000000       0.00000000       1393.20215       1.57288671    
   1.69323206      0.872922003      -0.00000000       1393.20215       1.57288671    
   1.72007501      0.818759024      -0.00000000       1393.20215       1.57288671    
   1.74518704      0.763773024      -0.00000000       1393.20215       1.57288671    
   1.60258806       1.02992105      -0.00000000       1418.92383       1.57281137    
   1.63445795      0.978555024      -0.00000000       1418.92383       1.57281137    
   0.00000000       0.00000000       0.00000000       1418.92383       1.57281137    
   1.56910396       1.08024895      -0.00000000       1418.92383       1.57281137    
   1.45931494       1.22450995      -0.00000000       1439.05920       1.57273865    
   1.49743104       1.17759299      -0.00000000       1439.05920       1.57273865    
   0.00000000       0.00000000       0.00000000       1439.05920       1.57273865    
   1.41972899       1.27019501      -0.00000000       1439.05920       1.57273865    
   0.00000000       0.00000000       0.00000000       1432.74023       1.57276988    
   1.49743104       1.17759299      -0.00000000       1432.74023       1.57276988    
   1.53403997       1.12949002      -0.00000000       1432.74023       1.57276988    
   1.56910396       1.08024895      -0.00000000       1432.74023       1.57276988    
   1.37871301       1.31459999      -0.00000000       1412.38110       1.57275712    
   1.41972899       1.27019501      -0.00000000       1412.38110       1.57275712    
   0.00000000       0.00000000       0.00000000       1412.38110       1.57275712    
   1.33631003       1.35768199      -0.00000000       1412.38110       1.57275712    
   1.20120299       1.47855902      -0.00000000       1194.07800       1.57310927    
   1.24750996       1.43970299      -0.00000000       1194.07800       1.57310927    
   0.00000000       0.00000000       0.00000000       1194.07800       1.57310927    
   1.15368605       1.51592600      -0.00000000       1194.07800       1.57310927    
   0.00000000       0.00000000       0.00000000       1319.92139       1.57288873    
   1.24750996       1.43970299      -0.00000000       1319.92139       1.57288873    
   1.29255998       1.39939702      -0.00000000       1319.92139       1.57288873    
   1.33631003       1.35768199      -0.00000000       1319.92139       1.57288873    
   1.10500801       1.55176699      -0.00000000       1063.56079       1.57339191    
   1.15368605       1.51592600      -0.00000000       1063.56079       1.57339191    
   0.00000000       0.00000000       0.00000000       1063.56079       1.57339191    
   1.05521798       1.58604598      -0.00000000       1063.56079       1.57339191    
  0.899676025       1.67916906      -0.00000000       813.139343       1.57417810    
  0.952499986       1.64977801      -0.00000000       813.139343       1.57417810    
   0.00000000       0.00000000       0.00000000       813.139343       1.57417810    
  0.845947027       1.70686805      -0.00000000       813.139343       1.57417810    
   0.00000000       0.00000000       0.00000000       935.832764       1.57374227    
  0.952499986       1.64977801      -0.00000000       935.832764       1.57374227    
   1.00436401       1.61872697      -0.00000000       935.832764       1.57374227    
   1.05521798       1.58604598      -0.00000000       935.832764       1.57374227    
  0.791365981       1.73284900      -0.00000000       696.151672       1.57473159    
  0.845947027       1.70686805      -0.00000000       696.151672       1.57473159    
   0.00000000       0.00000000       0.00000000       696.151672       1.57473159    
  0.735987008       1.75708497      -0.00000000       696.151672       1.57473159    
  0.565632999       1.81908906      -0.00000000       478.378510       1.57646465    
  0.623063982       1.80022705      -0.00000000       478.378510       1.57646465    
   0.00000000       0.00000000       0.00000000       478.378510       1.57646465    
  0.507632971       1.83611906      -0.00000000       478.378510       1.57646465    
   0.00000000       0.00000000       0.00000000       584.897461       1.57545793    
  0.623063982       1.80022705      -0.00000000       584.897461       1.57545793    
  0.679867983       1.77955198      -0.00000000       584.897461       1.57545793    
  0.735987008       1.75708497      -0.00000000       584.897461       1.57545793    
  0.449120998       1.85130095      -0.00000000       375.357666       1.57797527    
  0.507632971       1.83611906      -0.00000000       375.357666       1.57797527    
   0.00000000       0.00000000       0.00000000       375.357666       1.57797527    
  0.390157014       1.86461902      -0.00000000       375.357666       1.57797527    
  0.211146995       1.89326203      -0.00000000       175.909470       1.58590627    
  0.271109998       1.88560998      -0.00000000       175.909470       1.58590627    
   0.00000000       0.00000000       0.00000000       175.909470       1.58590627    
  0.150970995       1.89900804      -0.00000000       175.909470       1.58590627    
   0.00000000       0.00000000       0.00000000       274.753784       1.58053923    
  0.271109998       1.88560998      -0.00000000       274.753784       1.58053923    
  0.330799997       1.87605906      -0.00000000       274.753784       1.58053923    
  0.390157014       1.86461902      -0.00000000       274.753784       1.58053923    
   9.06440020E-02   1.90284204      -0.00000000       77.8495407       1.60469615    
  0.150970995       1.89900804      -0.00000000       77.8495407       1.60469615    
   0.00000000       0.00000000       0.00000000       77.8495407       1.60469615    
   3.02249994E-02   1.90476000      -0.00000000       77.8495407       1.60469615    
 -0.150970995       1.89900804      -0.00000000       118.226845      -1.59278524    
  -9.06440020E-02   1.90284204      -0.00000000       118.226845      -1.59278524    
   0.00000000       0.00000000       0.00000000       118.226845      -1.59278524    
 -0.211146995       1.89326203      -0.00000000       118.226845      -1.59278524    
   0.00000000       0.00000000       0.00000000       20.3870945      -1.69961500    
  -9.06440020E-02   1.90284204      -0.00000000       20.3870945      -1.69961500    
  -3.02249994E-02   1.90476000      -0.00000000       20.3870945      -1.69961500    
   3.02249994E-02   1.90476000      -0.00000000       20.3870945      -1.69961500    
 -0.271109998       1.88560998      -0.00000000       217.137802      -1.58267939    
 -0.211146995       1.89326203      -0.00000000       217.137802      -1.58267939    
   0.00000000       0.00000000       0.00000000       217.137802      -1.58267939    
 -0.330799997       1.87605906      -0.00000000       217.137802      -1.58267939    
 -0.507632971       1.83611906      -0.00000000       421.308319      -1.57683468    
 -0.449120998       1.85130095      -0.00000000       421.308319      -1.57683468    
   0.00000000       0.00000000       0.00000000       421.308319      -1.57683468    
 -0.565632999       1.81908906      -0.00000000       421.308319      -1.57683468    
   0.00000000       0.00000000       0.00000000       317.960205      -1.57885277    
 -0.449120998       1.85130095      -0.00000000       317.960205      -1.57885277    
 -0.390157014       1.86461902      -0.00000000       317.960205      -1.57885277    
 -0.330799997       1.87605906      -0.00000000       317.960205      -1.57885277    
 -0.623063982       1.80022705      -0.00000000       528.482971      -1.57557952    
 -0.565632999       1.81908906      -0.00000000       528.482971      -1.57557952    
   0.00000000       0.00000000       0.00000000       528.482971      -1.57557952    
 -0.679867983       1.77955198      -0.00000000       528.482971      -1.57557952    
 -0.845947027       1.70686805      -0.00000000       757.109619      -1.57409990    
 -0.791365981       1.73284900      -0.00000000       757.109619      -1.57409990    
   0.00000000       0.00000000       0.00000000       757.109619      -1.57409990    
 -0.899676025       1.67916906      -0.00000000       757.109619      -1.57409990    
   0.00000000       0.00000000       0.00000000       640.417297      -1.57472074    
 -0.791365981       1.73284900      -0.00000000       640.417297      -1.57472074    
 -0.735987008       1.75708497      -0.00000000       640.417297      -1.57472074    
 -0.679867983       1.77955198      -0.00000000       640.417297      -1.57472074    
 -0.952499986       1.64977801      -0.00000000       878.754639      -1.57363117    
 -0.899676025       1.67916906      -0.00000000       878.754639      -1.57363117    
   0.00000000       0.00000000       0.00000000       878.754639      -1.57363117    
  -1.00436401       1.61872697      -0.00000000       878.754639      -1.57363117    
  -1.15368605       1.51592600      -0.00000000       1130.39868      -1.57298851    
  -1.10500801       1.55176699      -0.00000000       1130.39868      -1.57298851    
   0.00000000       0.00000000       0.00000000       1130.39868      -1.57298851    
  -1.20120299       1.47855902      -0.00000000       1130.39868      -1.57298851    
   0.00000000       0.00000000       0.00000000       1004.21808      -1.57326937    
  -1.10500801       1.55176699      -0.00000000       1004.21808      -1.57326937    
  -1.05521798       1.58604598      -0.00000000       1004.21808      -1.57326937    
  -1.00436401       1.61872697      -0.00000000       1004.21808      -1.57326937    
  -1.24750996       1.43970299      -0.00000000       1250.37036      -1.57277417    
  -1.20120299       1.47855902      -0.00000000       1250.37036      -1.57277417    
   0.00000000       0.00000000       0.00000000       1250.37036      -1.57277417    
  -1.29255998       1.39939702      -0.00000000       1250.37036      -1.57277417    
  -1.41972899       1.27019501      -0.00000000       1363.81946      -1.57258356    
  -1.37871301       1.31459999      -0.00000000       1363.81946      -1.57258356    
   0.00000000       0.00000000       0.00000000       1363.81946      -1.57258356    
  -1.45931494       1.22450995      -0.00000000       1363.81946      -1.57258356    
   0.00000000       0.00000000       0.00000000       1338.89771      -1.57263541    
  -1.37871301       1.31459999      -0.00000000       1338.89771      -1.57263541    
  -1.33631003       1.35768199      -0.00000000       1338.89771      -1.57263541    
  -1.29255998       1.39939702      -0.00000000       1338.89771      -1.57263541    
  -1.49743104       1.17759299      -0.00000000       1355.99121      -1.57257128    
  -1.45931494       1.22450995      -0.00000000       1355.99121      -1.57257128    
   0.00000000       0.00000000       0.00000000       1355.99121      -1.57257128    
  -1.53403997       1.12949002      -0.00000000       1355.99121      -1.57257128    
  -1.63445795      0.978555024      -0.00000000       1330.97742      -1.57256246    
  -1.60258806       1.02992105      -0.00000000       1330.97742      -1.57256246    
   0.00000000       0.00000000       0.00000000       1330.97742      -1.57256246    
  -1.66468298      0.926204979      -0.00000000       1330.97742      -1.57256246    
   0.00000000       0.00000000       0.00000000       1342.69702      -1.57256687    
  -1.60258806       1.02992105      -0.00000000       1342.69702      -1.57256687    
  -1.56910396       1.08024895      -0.00000000       1342.69702      -1.57256687    
  -1.53403997       1.12949002      -0.00000000       1342.69702      -1.57256687    
  -1.69323206      0.872922003      -0.00000000       1322.80554      -1.57255590    
  -1.66468298      0.926204979      -0.00000000       1322.80554      -1.57255590    
   0.00000000       0.00000000       0.00000000       1322.80554      -1.57255590    
  -1.72007501      0.818759024      -0.00000000       1322.80554      -1.57255590    
  -1.79011405      0.651548028      -0.00000000       1319.37671      -1.57253349    
  -1.76854098      0.708016992      -0.00000000       1319.37671      -1.57253349    
   0.00000000       0.00000000       0.00000000       1319.37671      -1.57253349    
  -1.80988598      0.594424009      -0.00000000       1319.37671      -1.57253349    
   0.00000000       0.00000000       0.00000000       1319.04407      -1.57254624    
  -1.76854098      0.708016992      -0.00000000       1319.04407      -1.57254624    
  -1.74518704      0.763773024      -0.00000000       1319.04407      -1.57254624    
  -1.72007501      0.818759024      -0.00000000       1319.04407      -1.57254624    
  -1.82783401      0.536701024      -0.00000000       1322.37085      -1.57251966    
  -1.80988598      0.594424009      -0.00000000       1322.37085      -1.57251966    
   0.00000000       0.00000000       0.00000000       1322.37085      -1.57251966    
  -1.84394205      0.478437006      -0.00000000       1322.37085      -1.57251966    
  -1.88107097      0.300992996      -0.00000000       1330.97974      -1.57249546    
  -1.87057400      0.360523999      -0.00000000       1330.97974      -1.57249546    
   0.00000000       0.00000000       0.00000000       1330.97974      -1.57249546    
  -1.88967395      0.241159007      -0.00000000       1330.97974      -1.57249546    
   0.00000000       0.00000000       0.00000000       1326.69299      -1.57250643    
  -1.87057400      0.360523999      -0.00000000       1326.69299      -1.57250643    
  -1.85819399      0.419692010      -0.00000000       1326.69299      -1.57250643    
  -1.84394205      0.478437006      -0.00000000       1326.69299      -1.57250643    
  -1.89637399      0.181081995      -0.00000000       1334.83789      -1.57248712    
  -1.88967395      0.241159007      -0.00000000       1334.83789      -1.57248712    
   0.00000000       0.00000000       0.00000000       1334.83789      -1.57248712    
  -1.90116501      0.120823003      -0.00000000       1334.83789      -1.57248712    
  -1.90404105      -6.04420006E-02  -0.00000000       1337.24353      -1.57248247    
  -1.90499997       0.00000000      -0.00000000       1337.24353      -1.57248247    
   0.00000000       0.00000000       0.00000000       1337.24353      -1.57248247    
  -1.90116501     -0.120823003      -0.00000000       1337.24353      -1.57248247    
   0.00000000       0.00000000       0.00000000       1337.10730      -1.57248259    
  -1.90499997       0.00000000      -0.00000000       1337.10730      -1.57248259    
  -1.90404105       6.04420006E-02  -0.00000000       1337.10730      -1.57248259    
  -1.90116501      0.120823003      -0.00000000       1337.10730      -1.57248259    
  -1.89637399     -0.181081995      -0.00000000       1335.50183      -1.57248652    
  -1.90116501     -0.120823003      -0.00000000       1335.50183      -1.57248652    
   0.00000000       0.00000000       0.00000000       1335.50183      -1.57248652    
  -1.88967395     -0.241159007      -0.00000000       1335.50183      -1.57248652    
  -1.85819399     -0.419692010      -0.00000000       1329.79834      -1.57250297    
  -1.87057400     -0.360523999      -0.00000000       1329.79834      -1.57250297    
   0.00000000       0.00000000       0.00000000       1329.79834      -1.57250297    
  -1.84394205     -0.478437006      -0.00000000       1329.79834      -1.57250297    
   0.00000000       0.00000000       0.00000000       1332.83508      -1.57249343    
  -1.87057400     -0.360523999      -0.00000000       1332.83508      -1.57249343    
  -1.88107097     -0.300992996      -0.00000000       1332.83508      -1.57249343    
  -1.88967395     -0.241159007      -0.00000000       1332.83508      -1.57249343    
  -1.82783401     -0.536701024      -0.00000000       1326.96899      -1.57251441    
  -1.84394205     -0.478437006      -0.00000000       1326.96899      -1.57251441    
   0.00000000       0.00000000       0.00000000       1326.96899      -1.57251441    
  -1.80988598     -0.594424009      -0.00000000       1326.96899      -1.57251441    
  -1.74518704     -0.763773024      -0.00000000       1328.11218      -1.57253528    
  -1.76854098     -0.708016992      -0.00000000       1328.11218      -1.57253528    
   0.00000000       0.00000000       0.00000000       1328.11218      -1.57253528    
  -1.72007501     -0.818759024      -0.00000000       1328.11218      -1.57253528    
   0.00000000       0.00000000       0.00000000       1325.99597      -1.57252574    
  -1.76854098     -0.708016992      -0.00000000       1325.99597      -1.57252574    
  -1.79011405     -0.651548028      -0.00000000       1325.99597      -1.57252574    
  -1.80988598     -0.594424009      -0.00000000       1325.99597      -1.57252574    
  -1.69323206     -0.872922003      -0.00000000       1333.64709      -1.57254303    
  -1.72007501     -0.818759024      -0.00000000       1333.64709      -1.57254303    
   0.00000000       0.00000000       0.00000000       1333.64709      -1.57254303    
  -1.66468298     -0.926204979      -0.00000000       1333.64709      -1.57254303    
  -1.56910396      -1.08024895      -0.00000000       1354.06982      -1.57255340    
  -1.60258806      -1.02992105      -0.00000000       1354.06982      -1.57255340    
   0.00000000       0.00000000       0.00000000       1354.06982      -1.57255340    
  -1.53403997      -1.12949002      -0.00000000       1354.06982      -1.57255340    
   0.00000000       0.00000000       0.00000000       1342.68298      -1.57254863    
  -1.60258806      -1.02992105      -0.00000000       1342.68298      -1.57254863    
  -1.63445795     -0.978555024      -0.00000000       1342.68298      -1.57254863    
  -1.66468298     -0.926204979      -0.00000000       1342.68298      -1.57254863    
  -1.49743104      -1.17759299      -0.00000000       1364.91113      -1.57256067    
  -1.53403997      -1.12949002      -0.00000000       1364.91113      -1.57256067    
   0.00000000       0.00000000       0.00000000       1364.91113      -1.57256067    
  -1.45931494      -1.22450995      -0.00000000       1364.91113      -1.57256067    
  -1.33631003      -1.35768199      -0.00000000       1339.13525      -1.57263494    
  -1.37871301      -1.31459999      -0.00000000       1339.13525      -1.57263494    
   0.00000000       0.00000000       0.00000000       1339.13525      -1.57263494    
  -1.29255998      -1.39939702      -0.00000000       1339.13525      -1.57263494    
   0.00000000       0.00000000       0.00000000       1368.27820      -1.57257807    
  -1.37871301      -1.31459999      -0.00000000       1368.27820      -1.57257807    
  -1.41972899      -1.27019501      -0.00000000       1368.27820      -1.57257807    
  -1.45931494      -1.22450995      -0.00000000       1368.27820      -1.57257807    
  -1.24750996      -1.43970299      -0.00000000       1246.25244      -1.57278037    
  -1.29255998      -1.39939702      -0.00000000       1246.25244      -1.57278037    
   0.00000000       0.00000000       0.00000000       1246.25244      -1.57278037    
  -1.20120299      -1.47855902      -0.00000000       1246.25244      -1.57278037    
  -1.05521798      -1.58604598      -0.00000000       991.997131      -1.57329881    
  -1.10500801      -1.55176699      -0.00000000       991.997131      -1.57329881    
   0.00000000       0.00000000       0.00000000       991.997131      -1.57329881    
  -1.00436401      -1.61872697      -0.00000000       991.997131      -1.57329881    
   0.00000000       0.00000000       0.00000000       1121.40820      -1.57300508    
  -1.10500801      -1.55176699      -0.00000000       1121.40820      -1.57300508    
  -1.15368605      -1.51592600      -0.00000000       1121.40820      -1.57300508    
  -1.20120299      -1.47855902      -0.00000000       1121.40820      -1.57300508    
 -0.952499986      -1.64977801      -0.00000000       865.240356      -1.57367384    
  -1.00436401      -1.61872697      -0.00000000       865.240356      -1.57367384    
   0.00000000       0.00000000       0.00000000       865.240356      -1.57367384    
 -0.899676025      -1.67916906      -0.00000000       865.240356      -1.57367384    
 -0.735987008      -1.75708497      -0.00000000       627.068481      -1.57480276    
 -0.791365981      -1.73284900      -0.00000000       627.068481      -1.57480276    
   0.00000000       0.00000000       0.00000000       627.068481      -1.57480276    
 -0.679867983      -1.77955198      -0.00000000       627.068481      -1.57480276    
   0.00000000       0.00000000       0.00000000       743.368713      -1.57415903    
 -0.791365981      -1.73284900      -0.00000000       743.368713      -1.57415903    
 -0.845947027      -1.70686805      -0.00000000       743.368713      -1.57415903    
 -0.899676025      -1.67916906      -0.00000000       743.368713      -1.57415903    
 -0.623063982      -1.80022705      -0.00000000       516.414551      -1.57568967    
 -0.679867983      -1.77955198      -0.00000000       516.414551      -1.57568967    
   0.00000000       0.00000000       0.00000000       516.414551      -1.57568967    
 -0.565632999      -1.81908906      -0.00000000       516.414551      -1.57568967    
 -0.390157014      -1.86461902      -0.00000000       307.862366      -1.57911587    
 -0.449120998      -1.85130095      -0.00000000       307.862366      -1.57911587    
   0.00000000       0.00000000       0.00000000       307.862366      -1.57911587    
 -0.330799997      -1.87605906      -0.00000000       307.862366      -1.57911587    
   0.00000000       0.00000000       0.00000000       410.419373      -1.57699347    
 -0.449120998      -1.85130095      -0.00000000       410.419373      -1.57699347    
 -0.507632971      -1.83611906      -0.00000000       410.419373      -1.57699347    
 -0.565632999      -1.81908906      -0.00000000       410.419373      -1.57699347    
 -0.271109998      -1.88560998      -0.00000000       207.657776      -1.58322048    
 -0.330799997      -1.87605906      -0.00000000       207.657776      -1.58322048    
   0.00000000       0.00000000       0.00000000       207.657776      -1.58322048    
 -0.211146995      -1.89326203      -0.00000000       207.657776      -1.58322048    
  -3.02249994E-02  -1.90476000      -0.00000000       11.3678045      -1.80325675    
  -9.06440020E-02  -1.90284204      -0.00000000       11.3678045      -1.80325675    
   0.00000000       0.00000000       0.00000000       11.3678045      -1.80325675    
   3.02249994E-02  -1.90476000      -0.00000000       11.3678045      -1.80325675    
   0.00000000       0.00000000       0.00000000       109.054787      -1.59463322    
  -9.06440020E-02  -1.90284204      -0.00000000       109.054787      -1.59463322    
 -0.150970995      -1.89900804      -0.00000000       109.054787      -1.59463322    
 -0.211146995      -1.89326203      -0.00000000       109.054787      -1.59463322    
   9.06440020E-02  -1.90284204      -0.00000000       87.0401230       1.60111320    
   3.02249994E-02  -1.90476000      -0.00000000       87.0401230       1.60111320    
   0.00000000       0.00000000       0.00000000       87.0401230       1.60111320    
  0.150970995      -1.89900804      -0.00000000       87.0401230       1.60111320    
  0.330799997      -1.87605906      -0.00000000       284.477356       1.58020473    
  0.271109998      -1.88560998      -0.00000000       284.477356       1.58020473    
   0.00000000       0.00000000       0.00000000       284.477356       1.58020473    
  0.390157014      -1.86461902      -0.00000000       284.477356       1.58020473    
   0.00000000       0.00000000       0.00000000       185.180069       1.58514810    
  0.271109998      -1.88560998      -0.00000000       185.180069       1.58514810    
  0.211146995      -1.89326203      -0.00000000       185.180069       1.58514810    
  0.150970995      -1.89900804      -0.00000000       185.180069       1.58514810    
  0.449120998      -1.85130095      -0.00000000       385.819031       1.57777941    
  0.390157014      -1.86461902      -0.00000000       385.819031       1.57777941    
   0.00000000       0.00000000       0.00000000       385.819031       1.57777941    
  0.507632971      -1.83611906      -0.00000000       385.819031       1.57777941    
  0.679867983      -1.77955198      -0.00000000       597.570557       1.57535708    
  0.623063982      -1.80022705      -0.00000000       597.570557       1.57535708    
   0.00000000       0.00000000       0.00000000       597.570557       1.57535708    
  0.735987008      -1.75708497      -0.00000000       597.570557       1.57535708    
   0.00000000       0.00000000       0.00000000       489.742737       1.57633150    
  0.623063982      -1.80022705      -0.00000000       489.742737       1.57633150    
  0.565632999      -1.81908906      -0.00000000       489.742737       1.57633150    
  0.507632971      -1.83611906      -0.00000000       489.742737       1.57633150    
  0.791365981      -1.73284900      -0.00000000       710.244934       1.57465148    
  0.735987008      -1.75708497      -0.00000000       710.244934       1.57465148    
   0.00000000       0.00000000       0.00000000       710.244934       1.57465148    
  0.845947027      -1.70686805      -0.00000000       710.244934       1.57465148    
   1.00436401      -1.61872697      -0.00000000       950.323242       1.57369554    
  0.952499986      -1.64977801      -0.00000000       950.323242       1.57369554    
   0.00000000       0.00000000       0.00000000       950.323242       1.57369554    
   1.05521798      -1.58604598      -0.00000000       950.323242       1.57369554    
   0.00000000       0.00000000       0.00000000       827.751404       1.57411611    
  0.952499986      -1.64977801      -0.00000000       827.751404       1.57411611    
  0.899676025      -1.67916906      -0.00000000       827.751404       1.57411611    
  0.845947027      -1.70686805      -0.00000000       827.751404       1.57411611    
   1.10500801      -1.55176699      -0.00000000       1076.83911       1.57335865    
   1.05521798      -1.58604598      -0.00000000       1076.83911       1.57335865    
   0.00000000       0.00000000       0.00000000       1076.83911       1.57335865    
   1.15368605      -1.51592600      -0.00000000       1076.83911       1.57335865    
   1.29255998      -1.39939702      -0.00000000       1325.07666       1.57288027    
   1.24750996      -1.43970299      -0.00000000       1325.07666       1.57288027    
   0.00000000       0.00000000       0.00000000       1325.07666       1.57288027    
   1.33631003      -1.35768199      -0.00000000       1325.07666       1.57288027    
   0.00000000       0.00000000       0.00000000       1204.20435       1.57308877    
   1.24750996      -1.43970299      -0.00000000       1204.20435       1.57308877    
   1.20120299      -1.47855902      -0.00000000       1204.20435       1.57308877    