 VARIABLES="X" "Y" "Z" "abs(p) (Pa)" "angle(p) (rad)"
ZONE N=    802,E =     800, F=FEPOINT, ET=QUADRILATERAL
   1.90499997       0.00000000      -0.00000000       1.33428979       1.51436543    
   1.90404105      -6.04420006E-02  -0.00000000       1.33428979       1.51436543    
   0.00000000       0.00000000       0.00000000       1.33428979       1.51436543    
   1.90404105       6.04420006E-02  -0.00000000       1.33428979       1.51436543    
   1.88967395      0.241159007      -0.00000000       76.4063492       1.58457017    
   1.89637399      0.181081995      -0.00000000       76.4063492       1.58457017    
   0.00000000       0.00000000       0.00000000       76.4063492       1.58457017    
   1.88107097      0.300992996      -0.00000000       76.4063492       1.58457017    
   0.00000000       0.00000000       0.00000000       38.6626472       1.58373404    
   1.89637399      0.181081995      -0.00000000       38.6626472       1.58373404    
   1.90116501      0.120823003      -0.00000000       38.6626472       1.58373404    
   1.90404105       6.04420006E-02  -0.00000000       38.6626472       1.58373404    
   1.87057400      0.360523999      -0.00000000       114.596657       1.58455241    
   1.88107097      0.300992996      -0.00000000       114.596657       1.58455241    
   0.00000000       0.00000000       0.00000000       114.596657       1.58455241    
   1.85819399      0.419692010      -0.00000000       114.596657       1.58455241    
   1.80988598      0.594424009      -0.00000000       194.268967       1.58325446    
   1.82783401      0.536701024      -0.00000000       194.268967       1.58325446    
   0.00000000       0.00000000       0.00000000       194.268967       1.58325446    
   1.79011405      0.651548028      -0.00000000       194.268967       1.58325446    
   0.00000000       0.00000000       0.00000000       153.657639       1.58410215    
   1.82783401      0.536701024      -0.00000000       153.657639       1.58410215    
   1.84394205      0.478437006      -0.00000000       153.657639       1.58410215    
   1.85819399      0.419692010      -0.00000000       153.657639       1.58410215    
   1.76854098      0.708016992      -0.00000000       236.760330       1.58207679    
   1.79011405      0.651548028      -0.00000000       236.760330       1.58207679    
   0.00000000       0.00000000       0.00000000       236.760330       1.58207679    
   1.74518704      0.763773024      -0.00000000       236.760330       1.58207679    
   1.66468298      0.926204979      -0.00000000       329.242798       1.57884490    
   1.69323206      0.872922003      -0.00000000       329.242798       1.57884490    
   0.00000000       0.00000000       0.00000000       329.242798       1.57884490    
   1.63445795      0.978555024      -0.00000000       329.242798       1.57884490    
   0.00000000       0.00000000       0.00000000       281.707428       1.58057618    
   1.69323206      0.872922003      -0.00000000       281.707428       1.58057618    
   1.72007501      0.818759024      -0.00000000       281.707428       1.58057618    
   1.74518704      0.763773024      -0.00000000       281.707428       1.58057618    
   1.60258806       1.02992105      -0.00000000       378.777405       1.57700408    
   1.63445795      0.978555024      -0.00000000       378.777405       1.57700408    
   0.00000000       0.00000000       0.00000000       378.777405       1.57700408    
   1.56910396       1.08024895      -0.00000000       378.777405       1.57700408    
   1.45931494       1.22450995      -0.00000000       475.777802       1.57386768    
   1.49743104       1.17759299      -0.00000000       475.777802       1.57386768    
   0.00000000       0.00000000       0.00000000       475.777802       1.57386768    
   1.41972899       1.27019501      -0.00000000       475.777802       1.57386768    
   0.00000000       0.00000000       0.00000000       428.556854       1.57526720    
   1.49743104       1.17759299      -0.00000000       428.556854       1.57526720    
   1.53403997       1.12949002      -0.00000000       428.556854       1.57526720    
   1.56910396       1.08024895      -0.00000000       428.556854       1.57526720    
   1.37871301       1.31459999      -0.00000000       509.801331       1.57384157    
   1.41972899       1.27019501      -0.00000000       509.801331       1.57384157    
   0.00000000       0.00000000       0.00000000       509.801331       1.57384157    
   1.33631003       1.35768199      -0.00000000       509.801331       1.57384157    
   1.20120299       1.47855902      -0.00000000       511.454590       1.58025134    
   1.24750996       1.43970299      -0.00000000       511.454590       1.58025134    
   0.00000000       0.00000000       0.00000000       511.454590       1.58025134    
   1.15368605       1.51592600      -0.00000000       511.454590       1.58025134    
   0.00000000       0.00000000       0.00000000       517.495422       1.57641816    
   1.24750996       1.43970299      -0.00000000       517.495422       1.57641816    
   1.29255998       1.39939702      -0.00000000       517.495422       1.57641816    
   1.33631003       1.35768199      -0.00000000       517.495422       1.57641816    
   1.10500801       1.55176699      -0.00000000       503.108887       1.58414304    
   1.15368605       1.51592600      -0.00000000       503.108887       1.58414304    
   0.00000000       0.00000000       0.00000000       503.108887       1.58414304    
   1.05521798       1.58604598      -0.00000000       503.108887       1.58414304    
  0.899676025       1.67916906      -0.00000000       490.401306       1.59083235    
  0.952499986       1.64977801      -0.00000000       490.401306       1.59083235    
   0.00000000       0.00000000       0.00000000       490.401306       1.59083235    
  0.845947027       1.70686805      -0.00000000       490.401306       1.59083235    
   0.00000000       0.00000000       0.00000000       495.535706       1.58774877    
  0.952499986       1.64977801      -0.00000000       495.535706       1.58774877    
   1.00436401       1.61872697      -0.00000000       495.535706       1.58774877    
   1.05521798       1.58604598      -0.00000000       495.535706       1.58774877    
  0.791365981       1.73284900      -0.00000000       487.582794       1.59336019    
  0.845947027       1.70686805      -0.00000000       487.582794       1.59336019    
   0.00000000       0.00000000       0.00000000       487.582794       1.59336019    
  0.735987008       1.75708497      -0.00000000       487.582794       1.59336019    
  0.565632999       1.81908906      -0.00000000       487.908020       1.59674215    
  0.623063982       1.80022705      -0.00000000       487.908020       1.59674215    
   0.00000000       0.00000000       0.00000000       487.908020       1.59674215    
  0.507632971       1.83611906      -0.00000000       487.908020       1.59674215    
   0.00000000       0.00000000       0.00000000       486.927155       1.59531033    
  0.623063982       1.80022705      -0.00000000       486.927155       1.59531033    
  0.679867983       1.77955198      -0.00000000       486.927155       1.59531033    
  0.735987008       1.75708497      -0.00000000       486.927155       1.59531033    
  0.449120998       1.85130095      -0.00000000       489.901520       1.59773684    
  0.507632971       1.83611906      -0.00000000       489.901520       1.59773684    
   0.00000000       0.00000000       0.00000000       489.901520       1.59773684    
  0.390157014       1.86461902      -0.00000000       489.901520       1.59773684    
  0.211146995       1.89326203      -0.00000000       494.215179       1.59877598    
  0.271109998       1.88560998      -0.00000000       494.215179       1.59877598    
   0.00000000       0.00000000       0.00000000       494.215179       1.59877598    
  0.150970995       1.89900804      -0.00000000       494.215179       1.59877598    
   0.00000000       0.00000000       0.00000000       492.227875       1.59838474    
  0.271109998       1.88560998      -0.00000000       492.227875       1.59838474    
  0.330799997       1.87605906      -0.00000000       492.227875       1.59838474    
  0.390157014       1.86461902      -0.00000000       492.227875       1.59838474    
   9.06440020E-02   1.90284204      -0.00000000       495.738739       1.59892976    
  0.150970995       1.89900804      -0.00000000       495.738739       1.59892976    
   0.00000000       0.00000000       0.00000000       495.738739       1.59892976    
   3.02249994E-02   1.90476000      -0.00000000       495.738739       1.59892976    
 -0.150970995       1.89900804      -0.00000000       496.358551       1.59868312    
  -9.06440020E-02   1.90284204      -0.00000000       496.358551       1.59868312    
   0.00000000       0.00000000       0.00000000       496.358551       1.59868312    
 -0.211146995       1.89326203      -0.00000000       496.358551       1.59868312    
   0.00000000       0.00000000       0.00000000       496.413788       1.59890342    
  -9.06440020E-02   1.90284204      -0.00000000       496.413788       1.59890342    
  -3.02249994E-02   1.90476000      -0.00000000       496.413788       1.59890342    
   3.02249994E-02   1.90476000      -0.00000000       496.413788       1.59890342    
 -0.271109998       1.88560998      -0.00000000       495.853638       1.59822690    
 -0.211146995       1.89326203      -0.00000000       495.853638       1.59822690    
   0.00000000       0.00000000       0.00000000       495.853638       1.59822690    
 -0.330799997       1.87605906      -0.00000000       495.853638       1.59822690    
 -0.507632971       1.83611906      -0.00000000       495.156067       1.59640086    
 -0.449120998       1.85130095      -0.00000000       495.156067       1.59640086    
   0.00000000       0.00000000       0.00000000       495.156067       1.59640086    
 -0.565632999       1.81908906      -0.00000000       495.156067       1.59640086    
   0.00000000       0.00000000       0.00000000       495.234802       1.59749365    
 -0.449120998       1.85130095      -0.00000000       495.234802       1.59749365    
 -0.390157014       1.86461902      -0.00000000       495.234802       1.59749365    
 -0.330799997       1.87605906      -0.00000000       495.234802       1.59749365    
 -0.623063982       1.80022705      -0.00000000       496.300446       1.59486067    
 -0.565632999       1.81908906      -0.00000000       496.300446       1.59486067    
   0.00000000       0.00000000       0.00000000       496.300446       1.59486067    
 -0.679867983       1.77955198      -0.00000000       496.300446       1.59486067    
 -0.845947027       1.70686805      -0.00000000       503.979553       1.59025681    
 -0.791365981       1.73284900      -0.00000000       503.979553       1.59025681    
   0.00000000       0.00000000       0.00000000       503.979553       1.59025681    
 -0.899676025       1.67916906      -0.00000000       503.979553       1.59025681    
   0.00000000       0.00000000       0.00000000       499.037415       1.59283292    
 -0.791365981       1.73284900      -0.00000000       499.037415       1.59283292    
 -0.735987008       1.75708497      -0.00000000       499.037415       1.59283292    
 -0.679867983       1.77955198      -0.00000000       499.037415       1.59283292    
 -0.952499986       1.64977801      -0.00000000       511.184967       1.58716941    
 -0.899676025       1.67916906      -0.00000000       511.184967       1.58716941    
   0.00000000       0.00000000       0.00000000       511.184967       1.58716941    
  -1.00436401       1.61872697      -0.00000000       511.184967       1.58716941    
  -1.15368605       1.51592600      -0.00000000       529.095337       1.57993460    
  -1.10500801       1.55176699      -0.00000000       529.095337       1.57993460    
   0.00000000       0.00000000       0.00000000       529.095337       1.57993460    
  -1.20120299       1.47855902      -0.00000000       529.095337       1.57993460    
   0.00000000       0.00000000       0.00000000       520.148926       1.58365524    
  -1.10500801       1.55176699      -0.00000000       520.148926       1.58365524    
  -1.05521798       1.58604598      -0.00000000       520.148926       1.58365524    
  -1.00436401       1.61872697      -0.00000000       520.148926       1.58365524    
  -1.24750996       1.43970299      -0.00000000       535.100220       1.57630563    
  -1.20120299       1.47855902      -0.00000000       535.100220       1.57630563    
   0.00000000       0.00000000       0.00000000       535.100220       1.57630563    
  -1.29255998       1.39939702      -0.00000000       535.100220       1.57630563    
  -1.41972899       1.27019501      -0.00000000       491.937012       1.57401443    
  -1.37871301       1.31459999      -0.00000000       491.937012       1.57401443    
   0.00000000       0.00000000       0.00000000       491.937012       1.57401443    
  -1.45931494       1.22450995      -0.00000000       491.937012       1.57401443    
   0.00000000       0.00000000       0.00000000       527.171143       1.57386255    
  -1.37871301       1.31459999      -0.00000000       527.171143       1.57386255    
  -1.33631003       1.35768199      -0.00000000       527.171143       1.57386255    
  -1.29255998       1.39939702      -0.00000000       527.171143       1.57386255    
  -1.49743104       1.17759299      -0.00000000       442.718597       1.57562578    
  -1.45931494       1.22450995      -0.00000000       442.718597       1.57562578    
   0.00000000       0.00000000       0.00000000       442.718597       1.57562578    
  -1.53403997       1.12949002      -0.00000000       442.718597       1.57562578    
  -1.63445795      0.978555024      -0.00000000       341.151978       1.57963097    
  -1.60258806       1.02992105      -0.00000000       341.151978       1.57963097    
   0.00000000       0.00000000       0.00000000       341.151978       1.57963097    
  -1.66468298      0.926204979      -0.00000000       341.151978       1.57963097    
   0.00000000       0.00000000       0.00000000       391.410797       1.57759118    
  -1.60258806       1.02992105      -0.00000000       391.410797       1.57759118    
  -1.56910396       1.08024895      -0.00000000       391.410797       1.57759118    
  -1.53403997       1.12949002      -0.00000000       391.410797       1.57759118    
  -1.69323206      0.872922003      -0.00000000       293.759155       1.58150089    
  -1.66468298      0.926204979      -0.00000000       293.759155       1.58150089    
   0.00000000       0.00000000       0.00000000       293.759155       1.58150089    
  -1.72007501      0.818759024      -0.00000000       293.759155       1.58150089    
  -1.79011405      0.651548028      -0.00000000       207.306610       1.58439732    
  -1.76854098      0.708016992      -0.00000000       207.306610       1.58439732    
   0.00000000       0.00000000       0.00000000       207.306610       1.58439732    
  -1.80988598      0.594424009      -0.00000000       207.306610       1.58439732    
   0.00000000       0.00000000       0.00000000       249.226501       1.58311820    
  -1.76854098      0.708016992      -0.00000000       249.226501       1.58311820    
  -1.74518704      0.763773024      -0.00000000       249.226501       1.58311820    
  -1.72007501      0.818759024      -0.00000000       249.226501       1.58311820    
  -1.82783401      0.536701024      -0.00000000       167.429123       1.58533847    
  -1.80988598      0.594424009      -0.00000000       167.429123       1.58533847    
   0.00000000       0.00000000       0.00000000       167.429123       1.58533847    
  -1.84394205      0.478437006      -0.00000000       167.429123       1.58533847    
  -1.88107097      0.300992996      -0.00000000       91.2324677       1.58635056    
  -1.87057400      0.360523999      -0.00000000       91.2324677       1.58635056    
   0.00000000       0.00000000       0.00000000       91.2324677       1.58635056    
  -1.88967395      0.241159007      -0.00000000       91.2324677       1.58635056    
   0.00000000       0.00000000       0.00000000       128.996109       1.58594680    
  -1.87057400      0.360523999      -0.00000000       128.996109       1.58594680    
  -1.85819399      0.419692010      -0.00000000       128.996109       1.58594680    
  -1.84394205      0.478437006      -0.00000000       128.996109       1.58594680    
  -1.89637399      0.181081995      -0.00000000       53.7955055       1.58670330    
  -1.88967395      0.241159007      -0.00000000       53.7955055       1.58670330    
   0.00000000       0.00000000       0.00000000       53.7955055       1.58670330    
  -1.90116501      0.120823003      -0.00000000       53.7955055       1.58670330    
  -1.90404105      -6.04420006E-02  -0.00000000       20.2052155      -1.55483329    
  -1.90499997       0.00000000      -0.00000000       20.2052155      -1.55483329    
   0.00000000       0.00000000       0.00000000       20.2052155      -1.55483329    
  -1.90116501     -0.120823003      -0.00000000       20.2052155      -1.55483329    
   0.00000000       0.00000000       0.00000000       16.7422009       1.58694279    
  -1.90499997       0.00000000      -0.00000000       16.7422009       1.58694279    
  -1.90404105       6.04420006E-02  -0.00000000       16.7422009       1.58694279    
  -1.90116501      0.120823003      -0.00000000       16.7422009       1.58694279    
  -1.89637399     -0.181081995      -0.00000000       57.4135551      -1.55507779    
  -1.90116501     -0.120823003      -0.00000000       57.4135551      -1.55507779    
   0.00000000       0.00000000       0.00000000       57.4135551      -1.55507779    
  -1.88967395     -0.241159007      -0.00000000       57.4135551      -1.55507779    
  -1.85819399     -0.419692010      -0.00000000       132.754379      -1.55579174    
  -1.87057400     -0.360523999      -0.00000000       132.754379      -1.55579174    
   0.00000000       0.00000000       0.00000000       132.754379      -1.55579174    
  -1.84394205     -0.478437006      -0.00000000       132.754379      -1.55579174    
   0.00000000       0.00000000       0.00000000       94.9418182      -1.55540478    
  -1.87057400     -0.360523999      -0.00000000       94.9418182      -1.55540478    
  -1.88107097     -0.300992996      -0.00000000       94.9418182      -1.55540478    
  -1.88967395     -0.241159007      -0.00000000       94.9418182      -1.55540478    
  -1.82783401     -0.536701024      -0.00000000       171.487991      -1.55644631    
  -1.84394205     -0.478437006      -0.00000000       171.487991      -1.55644631    
   0.00000000       0.00000000       0.00000000       171.487991      -1.55644631    
  -1.80988598     -0.594424009      -0.00000000       171.487991      -1.55644631    
  -1.74518704     -0.763773024      -0.00000000       254.122986      -1.55874181    
  -1.76854098     -0.708016992      -0.00000000       254.122986      -1.55874181    
   0.00000000       0.00000000       0.00000000       254.122986      -1.55874181    
  -1.72007501     -0.818759024      -0.00000000       254.122986      -1.55874181    
   0.00000000       0.00000000       0.00000000       211.840942      -1.55744612    
  -1.76854098     -0.708016992      -0.00000000       211.840942      -1.55744612    
  -1.79011405     -0.651548028      -0.00000000       211.840942      -1.55744612    
  -1.80988598     -0.594424009      -0.00000000       211.840942      -1.55744612    
  -1.69323206     -0.872922003      -0.00000000       298.969177      -1.56035519    
  -1.72007501     -0.818759024      -0.00000000       298.969177      -1.56035519    
   0.00000000       0.00000000       0.00000000       298.969177      -1.56035519    
  -1.66468298     -0.926204979      -0.00000000       298.969177      -1.56035519    
  -1.56910396      -1.08024895      -0.00000000       396.126648      -1.56414616    
  -1.60258806      -1.02992105      -0.00000000       396.126648      -1.56414616    
   0.00000000       0.00000000       0.00000000       396.126648      -1.56414616    
  -1.53403997      -1.12949002      -0.00000000       396.126648      -1.56414616    
   0.00000000       0.00000000       0.00000000       346.512360      -1.56219804    
  -1.60258806      -1.02992105      -0.00000000       346.512360      -1.56219804    
  -1.63445795     -0.978555024      -0.00000000       346.512360      -1.56219804    
  -1.66468298     -0.926204979      -0.00000000       346.512360      -1.56219804    
  -1.49743104      -1.17759299      -0.00000000       446.102692      -1.56599748    
  -1.53403997      -1.12949002      -0.00000000       446.102692      -1.56599748    
   0.00000000       0.00000000       0.00000000       446.102692      -1.56599748    
  -1.45931494      -1.22450995      -0.00000000       446.102692      -1.56599748    
  -1.33631003      -1.35768199      -0.00000000       527.099304      -1.56760418    
  -1.37871301      -1.31459999      -0.00000000       527.099304      -1.56760418    
   0.00000000       0.00000000       0.00000000       527.099304      -1.56760418    
  -1.29255998      -1.39939702      -0.00000000       527.099304      -1.56760418    
   0.00000000       0.00000000       0.00000000       493.475555      -1.56749976    
  -1.37871301      -1.31459999      -0.00000000       493.475555      -1.56749976    
  -1.41972899      -1.27019501      -0.00000000       493.475555      -1.56749976    
  -1.45931494      -1.22450995      -0.00000000       493.475555      -1.56749976    
  -1.24750996      -1.43970299      -0.00000000       533.550110      -1.56508470    
  -1.29255998      -1.39939702      -0.00000000       533.550110      -1.56508470    
   0.00000000       0.00000000       0.00000000       533.550110      -1.56508470    
  -1.20120299      -1.47855902      -0.00000000       533.550110      -1.56508470    
  -1.05521798      -1.58604598      -0.00000000       516.113342      -1.55745506    
  -1.10500801      -1.55176699      -0.00000000       516.113342      -1.55745506    
   0.00000000       0.00000000       0.00000000       516.113342      -1.55745506    
  -1.00436401      -1.61872697      -0.00000000       516.113342      -1.55745506    
   0.00000000       0.00000000       0.00000000       526.005554      -1.56130648    
  -1.10500801      -1.55176699      -0.00000000       526.005554      -1.56130648    
  -1.15368605      -1.51592600      -0.00000000       526.005554      -1.56130648    
  -1.20120299      -1.47855902      -0.00000000       526.005554      -1.56130648    
 -0.952499986      -1.64977801      -0.00000000       506.984589      -1.55386794    
  -1.00436401      -1.61872697      -0.00000000       506.984589      -1.55386794    
   0.00000000       0.00000000       0.00000000       506.984589      -1.55386794    
 -0.899676025      -1.67916906      -0.00000000       506.984589      -1.55386794    
 -0.735987008      -1.75708497      -0.00000000       496.100311      -1.54824781    
 -0.791365981      -1.73284900      -0.00000000       496.100311      -1.54824781    
   0.00000000       0.00000000       0.00000000       496.100311      -1.54824781    
 -0.679867983      -1.77955198      -0.00000000       496.100311      -1.54824781    
   0.00000000       0.00000000       0.00000000       500.339417      -1.55078661    
 -0.791365981      -1.73284900      -0.00000000       500.339417      -1.55078661    
 -0.845947027      -1.70686805      -0.00000000       500.339417      -1.55078661    
 -0.899676025      -1.67916906      -0.00000000       500.339417      -1.55078661    
 -0.623063982      -1.80022705      -0.00000000       494.112823      -1.54627991    
 -0.679867983      -1.77955198      -0.00000000       494.112823      -1.54627991    
   0.00000000       0.00000000       0.00000000       494.112823      -1.54627991    
 -0.565632999      -1.81908906      -0.00000000       494.112823      -1.54627991    
 -0.390157014      -1.86461902      -0.00000000       494.565582      -1.54380262    
 -0.449120998      -1.85130095      -0.00000000       494.565582      -1.54380262    
   0.00000000       0.00000000       0.00000000       494.565582      -1.54380262    
 -0.330799997      -1.87605906      -0.00000000       494.565582      -1.54380262    
   0.00000000       0.00000000       0.00000000       493.816345      -1.54482293    
 -0.449120998      -1.85130095      -0.00000000       493.816345      -1.54482293    
 -0.507632971      -1.83611906      -0.00000000       493.816345      -1.54482293    
 -0.565632999      -1.81908906      -0.00000000       493.816345      -1.54482293    
 -0.271109998      -1.88560998      -0.00000000       495.650208      -1.54312086    
 -0.330799997      -1.87605906      -0.00000000       495.650208      -1.54312086    
   0.00000000       0.00000000       0.00000000       495.650208      -1.54312086    
 -0.211146995      -1.89326203      -0.00000000       495.650208      -1.54312086    
  -3.02249994E-02  -1.90476000      -0.00000000       496.640686      -1.54249251    
  -9.06440020E-02  -1.90284204      -0.00000000       496.640686      -1.54249251    
   0.00000000       0.00000000       0.00000000       496.640686      -1.54249251    
   3.02249994E-02  -1.90476000      -0.00000000       496.640686      -1.54249251    
   0.00000000       0.00000000       0.00000000       496.379028      -1.54268956    
  -9.06440020E-02  -1.90284204      -0.00000000       496.379028      -1.54268956    
 -0.150970995      -1.89900804      -0.00000000       496.379028      -1.54268956    
 -0.211146995      -1.89326203      -0.00000000       496.379028      -1.54268956    
   9.06440020E-02  -1.90284204      -0.00000000       496.052582      -1.54247534    
   3.02249994E-02  -1.90476000      -0.00000000       496.052582      -1.54247534    
   0.00000000       0.00000000       0.00000000       496.052582      -1.54247534    
  0.150970995      -1.89900804      -0.00000000       496.052582      -1.54247534    
  0.330799997      -1.87605906      -0.00000000       492.990173      -1.54307103    
  0.271109998      -1.88560998      -0.00000000       492.990173      -1.54307103    
   0.00000000       0.00000000       0.00000000       492.990173      -1.54307103    
  0.390157014      -1.86461902      -0.00000000       492.990173      -1.54307103    
   0.00000000       0.00000000       0.00000000       494.740631      -1.54265225    
  0.271109998      -1.88560998      -0.00000000       494.740631      -1.54265225    
  0.211146995      -1.89326203      -0.00000000       494.740631      -1.54265225    
  0.150970995      -1.89900804      -0.00000000       494.740631      -1.54265225    
  0.449120998      -1.85130095      -0.00000000       491.150208      -1.54377270    
  0.390157014      -1.86461902      -0.00000000       491.150208      -1.54377270    
   0.00000000       0.00000000       0.00000000       491.150208      -1.54377270    
  0.507632971      -1.83611906      -0.00000000       491.150208      -1.54377270    
  0.679867983      -1.77955198      -0.00000000       489.719818      -1.54635727    
  0.623063982      -1.80022705      -0.00000000       489.719818      -1.54635727    
   0.00000000       0.00000000       0.00000000       489.719818      -1.54635727    
  0.735987008      -1.75708497      -0.00000000       489.719818      -1.54635727    
   0.00000000       0.00000000       0.00000000       489.842712      -1.54483938    
  0.623063982      -1.80022705      -0.00000000       489.842712      -1.54483938    
  0.565632999      -1.81908906      -0.00000000       489.842712      -1.54483938    
  0.507632971      -1.83611906      -0.00000000       489.842712      -1.54483938    
  0.791365981      -1.73284900      -0.00000000       491.142883      -1.54837239    
  0.735987008      -1.75708497      -0.00000000       491.142883      -1.54837239    
   0.00000000       0.00000000       0.00000000       491.142883      -1.54837239    
  0.845947027      -1.70686805      -0.00000000       491.142883      -1.54837239    
   1.00436401      -1.61872697      -0.00000000       500.415558      -1.55404186    
  0.952499986      -1.64977801      -0.00000000       500.415558      -1.55404186    
   0.00000000       0.00000000       0.00000000       500.415558      -1.55404186    
   1.05521798      -1.58604598      -0.00000000       500.415558      -1.55404186    
   0.00000000       0.00000000       0.00000000       494.662659      -1.55094218    
  0.952499986      -1.64977801      -0.00000000       494.662659      -1.55094218    
  0.899676025      -1.67916906      -0.00000000       494.662659      -1.55094218    
  0.845947027      -1.70686805      -0.00000000       494.662659      -1.55094218    
   1.10500801      -1.55176699      -0.00000000       507.903900      -1.55758524    
   1.05521798      -1.58604598      -0.00000000       507.903900      -1.55758524    
   0.00000000       0.00000000       0.00000000       507.903900      -1.55758524    
   1.15368605      -1.51592600      -0.00000000       507.903900      -1.55758524    
   1.29255998      -1.39939702      -0.00000000       519.985901      -1.56504333    
   1.24750996      -1.43970299      -0.00000000       519.985901      -1.56504333    
   0.00000000       0.00000000       0.00000000       519.985901      -1.56504333    
   1.33631003      -1.35768199      -0.00000000       519.985901      -1.56504333    
   0.00000000       0.00000000       0.00000000       515.389038      -1.56135273    
   1.24750996      -1.43970299      -0.00000000       515.389038      -1.56135273    
   1.20120299      -1.47855902      -0.00000000       515.389038      -1.56135273    