 VARIABLES="X" "Y" "Z" "abs(p) (Pa)" "angle(p) (rad)"
ZONE N=    802,E =     800, F=FEPOINT, ET=QUADRILATERAL
   1.90499997       0.00000000      -0.00000000       60.5184021       2.10653806    
   1.90404105      -6.04420006E-02  -0.00000000       60.5184021       2.10653806    
   0.00000000       0.00000000       0.00000000       60.5184021       2.10653806    
   1.90404105       6.04420006E-02  -0.00000000       60.5184021       2.10653806    
   1.88967395      0.241159007      -0.00000000       60.4453583       2.10682297    
   1.89637399      0.181081995      -0.00000000       60.4453583       2.10682297    
   0.00000000       0.00000000       0.00000000       60.4453583       2.10682297    
   1.88107097      0.300992996      -0.00000000       60.4453583       2.10682297    
   0.00000000       0.00000000       0.00000000       60.4994087       2.10661197    
   1.89637399      0.181081995      -0.00000000       60.4994087       2.10661197    
   1.90116501      0.120823003      -0.00000000       60.4994087       2.10661197    
   1.90404105       6.04420006E-02  -0.00000000       60.4994087       2.10661197    
   1.87057400      0.360523999      -0.00000000       60.3485641       2.10720158    
   1.88107097      0.300992996      -0.00000000       60.3485641       2.10720158    
   0.00000000       0.00000000       0.00000000       60.3485641       2.10720158    
   1.85819399      0.419692010      -0.00000000       60.3485641       2.10720158    
   1.80988598      0.594424009      -0.00000000       59.9270744       2.10889578    
   1.82783401      0.536701024      -0.00000000       59.9270744       2.10889578    
   0.00000000       0.00000000       0.00000000       59.9270744       2.10889578    
   1.79011405      0.651548028      -0.00000000       59.9270744       2.10889578    
   0.00000000       0.00000000       0.00000000       60.1802216       2.10787439    
   1.82783401      0.536701024      -0.00000000       60.1802216       2.10787439    
   1.84394205      0.478437006      -0.00000000       60.1802216       2.10787439    
   1.85819399      0.419692010      -0.00000000       60.1802216       2.10787439    
   1.76854098      0.708016992      -0.00000000       59.5630569       2.11035967    
   1.79011405      0.651548028      -0.00000000       59.5630569       2.11035967    
   0.00000000       0.00000000       0.00000000       59.5630569       2.11035967    
   1.74518704      0.763773024      -0.00000000       59.5630569       2.11035967    
   1.66468298      0.926204979      -0.00000000       58.4333191       2.11483383    
   1.69323206      0.872922003      -0.00000000       58.4333191       2.11483383    
   0.00000000       0.00000000       0.00000000       58.4333191       2.11483383    
   1.63445795      0.978555024      -0.00000000       58.4333191       2.11483383    
   0.00000000       0.00000000       0.00000000       59.0677757       2.11234403    
   1.69323206      0.872922003      -0.00000000       59.0677757       2.11234403    
   1.72007501      0.818759024      -0.00000000       59.0677757       2.11234403    
   1.74518704      0.763773024      -0.00000000       59.0677757       2.11234403    
   1.60258806       1.02992105      -0.00000000       57.6669960       2.11776614    
   1.63445795      0.978555024      -0.00000000       57.6669960       2.11776614    
   0.00000000       0.00000000       0.00000000       57.6669960       2.11776614    
   1.56910396       1.08024895      -0.00000000       57.6669960       2.11776614    
   1.45931494       1.22450995      -0.00000000       55.9426346       2.12395167    
   1.49743104       1.17759299      -0.00000000       55.9426346       2.12395167    
   0.00000000       0.00000000       0.00000000       55.9426346       2.12395167    
   1.41972899       1.27019501      -0.00000000       55.9426346       2.12395167    
   0.00000000       0.00000000       0.00000000       56.8045464       2.12094355    
   1.49743104       1.17759299      -0.00000000       56.8045464       2.12094355    
   1.53403997       1.12949002      -0.00000000       56.8045464       2.12094355    
   1.56910396       1.08024895      -0.00000000       56.8045464       2.12094355    
   1.37871301       1.31459999      -0.00000000       55.4902229       2.12541223    
   1.41972899       1.27019501      -0.00000000       55.4902229       2.12541223    
   0.00000000       0.00000000       0.00000000       55.4902229       2.12541223    
   1.33631003       1.35768199      -0.00000000       55.4902229       2.12541223    
   1.20120299       1.47855902      -0.00000000       56.8882484       2.12040257    
   1.24750996       1.43970299      -0.00000000       56.8882484       2.12040257    
   0.00000000       0.00000000       0.00000000       56.8882484       2.12040257    
   1.15368605       1.51592600      -0.00000000       56.8882484       2.12040257    
   0.00000000       0.00000000       0.00000000       55.9734573       2.12369394    
   1.24750996       1.43970299      -0.00000000       55.9734573       2.12369394    
   1.29255998       1.39939702      -0.00000000       55.9734573       2.12369394    
   1.33631003       1.35768199      -0.00000000       55.9734573       2.12369394    
   1.10500801       1.55176699      -0.00000000       57.7935181       2.11703634    
   1.15368605       1.51592600      -0.00000000       57.7935181       2.11703634    
   0.00000000       0.00000000       0.00000000       57.7935181       2.11703634    
   1.05521798       1.58604598      -0.00000000       57.7935181       2.11703634    
  0.899676025       1.67916906      -0.00000000       59.2319603       2.11151147    
  0.952499986       1.64977801      -0.00000000       59.2319603       2.11151147    
   0.00000000       0.00000000       0.00000000       59.2319603       2.11151147    
  0.845947027       1.70686805      -0.00000000       59.2319603       2.11151147    
   0.00000000       0.00000000       0.00000000       58.5862198       2.11401367    
  0.952499986       1.64977801      -0.00000000       58.5862198       2.11401367    
   1.00436401       1.61872697      -0.00000000       58.5862198       2.11401367    
   1.05521798       1.58604598      -0.00000000       58.5862198       2.11401367    
  0.791365981       1.73284900      -0.00000000       59.7313232       2.10955501    
  0.845947027       1.70686805      -0.00000000       59.7313232       2.10955501    
   0.00000000       0.00000000       0.00000000       59.7313232       2.10955501    
  0.735987008       1.75708497      -0.00000000       59.7313232       2.10955501    
  0.565632999       1.81908906      -0.00000000       60.3624115       2.10708213    
  0.623063982       1.80022705      -0.00000000       60.3624115       2.10708213    
   0.00000000       0.00000000       0.00000000       60.3624115       2.10708213    
  0.507632971       1.83611906      -0.00000000       60.3624115       2.10708213    
   0.00000000       0.00000000       0.00000000       60.1008224       2.10810995    
  0.623063982       1.80022705      -0.00000000       60.1008224       2.10810995    
  0.679867983       1.77955198      -0.00000000       60.1008224       2.10810995    
  0.735987008       1.75708497      -0.00000000       60.1008224       2.10810995    
  0.449120998       1.85130095      -0.00000000       60.5403748       2.10640836    
  0.507632971       1.83611906      -0.00000000       60.5403748       2.10640836    
   0.00000000       0.00000000       0.00000000       60.5403748       2.10640836    
  0.390157014       1.86461902      -0.00000000       60.5403748       2.10640836    
  0.211146995       1.89326203      -0.00000000       60.7239151       2.10573483    
  0.271109998       1.88560998      -0.00000000       60.7239151       2.10573483    
   0.00000000       0.00000000       0.00000000       60.7239151       2.10573483    
  0.150970995       1.89900804      -0.00000000       60.7239151       2.10573483    
   0.00000000       0.00000000       0.00000000       60.6538506       2.10599065    
  0.271109998       1.88560998      -0.00000000       60.6538506       2.10599065    
  0.330799997       1.87605906      -0.00000000       60.6538506       2.10599065    
  0.390157014       1.86461902      -0.00000000       60.6538506       2.10599065    
   9.06440020E-02   1.90284204      -0.00000000       60.7569008       2.10561562    
  0.150970995       1.89900804      -0.00000000       60.7569008       2.10561562    
   0.00000000       0.00000000       0.00000000       60.7569008       2.10561562    
   3.02249994E-02   1.90476000      -0.00000000       60.7569008       2.10561562    
 -0.150970995       1.89900804      -0.00000000       60.7198105       2.10576057    
  -9.06440020E-02   1.90284204      -0.00000000       60.7198105       2.10576057    
   0.00000000       0.00000000       0.00000000       60.7198105       2.10576057    
 -0.211146995       1.89326203      -0.00000000       60.7198105       2.10576057    
   0.00000000       0.00000000       0.00000000       60.7548447       2.10562778    
  -9.06440020E-02   1.90284204      -0.00000000       60.7548447       2.10562778    
  -3.02249994E-02   1.90476000      -0.00000000       60.7548447       2.10562778    
   3.02249994E-02   1.90476000      -0.00000000       60.7548447       2.10562778    
 -0.271109998       1.88560998      -0.00000000       60.6473083       2.10602427    
 -0.211146995       1.89326203      -0.00000000       60.6473083       2.10602427    
   0.00000000       0.00000000       0.00000000       60.6473083       2.10602427    
 -0.330799997       1.87605906      -0.00000000       60.6473083       2.10602427    
 -0.507632971       1.83611906      -0.00000000       60.3336296       2.10725021    
 -0.449120998       1.85130095      -0.00000000       60.3336296       2.10725021    
   0.00000000       0.00000000       0.00000000       60.3336296       2.10725021    
 -0.565632999       1.81908906      -0.00000000       60.3336296       2.10725021    
   0.00000000       0.00000000       0.00000000       60.5269165       2.10648298    
 -0.449120998       1.85130095      -0.00000000       60.5269165       2.10648298    
 -0.390157014       1.86461902      -0.00000000       60.5269165       2.10648298    
 -0.330799997       1.87605906      -0.00000000       60.5269165       2.10648298    
 -0.623063982       1.80022705      -0.00000000       60.0582352       2.10835481    
 -0.565632999       1.81908906      -0.00000000       60.0582352       2.10835481    
   0.00000000       0.00000000       0.00000000       60.0582352       2.10835481    
 -0.679867983       1.77955198      -0.00000000       60.0582352       2.10835481    
 -0.845947027       1.70686805      -0.00000000       59.1625900       2.11193037    
 -0.791365981       1.73284900      -0.00000000       59.1625900       2.11193037    
   0.00000000       0.00000000       0.00000000       59.1625900       2.11193037    
 -0.899676025       1.67916906      -0.00000000       59.1625900       2.11193037    
   0.00000000       0.00000000       0.00000000       59.6752090       2.10988712    
 -0.791365981       1.73284900      -0.00000000       59.6752090       2.10988712    
 -0.735987008       1.75708497      -0.00000000       59.6752090       2.10988712    
 -0.679867983       1.77955198      -0.00000000       59.6752090       2.10988712    
 -0.952499986       1.64977801      -0.00000000       58.5140457       2.11447453    
 -0.899676025       1.67916906      -0.00000000       58.5140457       2.11447453    
   0.00000000       0.00000000       0.00000000       58.5140457       2.11447453    
  -1.00436401       1.61872697      -0.00000000       58.5140457       2.11447453    
  -1.15368605       1.51592600      -0.00000000       56.8622093       2.12066603    
  -1.10500801       1.55176699      -0.00000000       56.8622093       2.12066603    
   0.00000000       0.00000000       0.00000000       56.8622093       2.12066603    
  -1.20120299       1.47855902      -0.00000000       56.8622093       2.12066603    
   0.00000000       0.00000000       0.00000000       57.7355766       2.11744690    
  -1.10500801       1.55176699      -0.00000000       57.7355766       2.11744690    
  -1.05521798       1.58604598      -0.00000000       57.7355766       2.11744690    
  -1.00436401       1.61872697      -0.00000000       57.7355766       2.11744690    
  -1.24750996       1.43970299      -0.00000000       55.9922295       2.12370491    
  -1.20120299       1.47855902      -0.00000000       55.9922295       2.12370491    
   0.00000000       0.00000000       0.00000000       55.9922295       2.12370491    
  -1.29255998       1.39939702      -0.00000000       55.9922295       2.12370491    
  -1.41972899       1.27019501      -0.00000000       56.0178108       2.12348008    
  -1.37871301       1.31459999      -0.00000000       56.0178108       2.12348008    
   0.00000000       0.00000000       0.00000000       56.0178108       2.12348008    
  -1.45931494       1.22450995      -0.00000000       56.0178108       2.12348008    
   0.00000000       0.00000000       0.00000000       55.5365295       2.12518358    
  -1.37871301       1.31459999      -0.00000000       55.5365295       2.12518358    
  -1.33631003       1.35768199      -0.00000000       55.5365295       2.12518358    
  -1.29255998       1.39939702      -0.00000000       55.5365295       2.12518358    
  -1.49743104       1.17759299      -0.00000000       56.9282188       2.12022233    
  -1.45931494       1.22450995      -0.00000000       56.9282188       2.12022233    
   0.00000000       0.00000000       0.00000000       56.9282188       2.12022233    
  -1.53403997       1.12949002      -0.00000000       56.9282188       2.12022233    
  -1.63445795      0.978555024      -0.00000000       58.6186714       2.11387825    
  -1.60258806       1.02992105      -0.00000000       58.6186714       2.11387825    
   0.00000000       0.00000000       0.00000000       58.6186714       2.11387825    
  -1.66468298      0.926204979      -0.00000000       58.6186714       2.11387825    
   0.00000000       0.00000000       0.00000000       57.8291702       2.11688137    
  -1.60258806       1.02992105      -0.00000000       57.8291702       2.11688137    
  -1.56910396       1.08024895      -0.00000000       57.8291702       2.11688137    
  -1.53403997       1.12949002      -0.00000000       57.8291702       2.11688137    
  -1.69323206      0.872922003      -0.00000000       59.2613983       2.11139321    
  -1.66468298      0.926204979      -0.00000000       59.2613983       2.11139321    
   0.00000000       0.00000000       0.00000000       59.2613983       2.11139321    
  -1.72007501      0.818759024      -0.00000000       59.2613983       2.11139321    
  -1.79011405      0.651548028      -0.00000000       60.1250381       2.10801911    
  -1.76854098      0.708016992      -0.00000000       60.1250381       2.10801911    
   0.00000000       0.00000000       0.00000000       60.1250381       2.10801911    
  -1.80988598      0.594424009      -0.00000000       60.1250381       2.10801911    
   0.00000000       0.00000000       0.00000000       59.7582130       2.10946035    
  -1.76854098      0.708016992      -0.00000000       59.7582130       2.10946035    
  -1.74518704      0.763773024      -0.00000000       59.7582130       2.10946035    
  -1.72007501      0.818759024      -0.00000000       59.7582130       2.10946035    
  -1.82783401      0.536701024      -0.00000000       60.3850441       2.10700607    
  -1.80988598      0.594424009      -0.00000000       60.3850441       2.10700607    
   0.00000000       0.00000000       0.00000000       60.3850441       2.10700607    
  -1.84394205      0.478437006      -0.00000000       60.3850441       2.10700607    
  -1.88107097      0.300992996      -0.00000000       60.6739922       2.10592437    
  -1.87057400      0.360523999      -0.00000000       60.6739922       2.10592437    
   0.00000000       0.00000000       0.00000000       60.6739922       2.10592437    
  -1.88967395      0.241159007      -0.00000000       60.6739922       2.10592437    
   0.00000000       0.00000000       0.00000000       60.5615540       2.10633874    
  -1.87057400      0.360523999      -0.00000000       60.5615540       2.10633874    
  -1.85819399      0.419692010      -0.00000000       60.5615540       2.10633874    
  -1.84394205      0.478437006      -0.00000000       60.5615540       2.10633874    
  -1.89637399      0.181081995      -0.00000000       60.7434731       2.10567355    
  -1.88967395      0.241159007      -0.00000000       60.7434731       2.10567355    
   0.00000000       0.00000000       0.00000000       60.7434731       2.10567355    
  -1.90116501      0.120823003      -0.00000000       60.7434731       2.10567355    
  -1.90404105      -6.04420006E-02  -0.00000000       60.7737808       2.10556865    
  -1.90499997       0.00000000      -0.00000000       60.7737808       2.10556865    
   0.00000000       0.00000000       0.00000000       60.7737808       2.10556865    
  -1.90116501     -0.120823003      -0.00000000       60.7737808       2.10556865    
   0.00000000       0.00000000       0.00000000       60.7759972       2.10555649    
  -1.90499997       0.00000000      -0.00000000       60.7759972       2.10555649    
  -1.90404105       6.04420006E-02  -0.00000000       60.7759972       2.10555649    
  -1.90116501      0.120823003      -0.00000000       60.7759972       2.10555649    
  -1.89637399     -0.181081995      -0.00000000       60.7380791       2.10570145    
  -1.90116501     -0.120823003      -0.00000000       60.7380791       2.10570145    
   0.00000000       0.00000000       0.00000000       60.7380791       2.10570145    
  -1.88967395     -0.241159007      -0.00000000       60.7380791       2.10570145    
  -1.85819399     -0.419692010      -0.00000000       60.5431709       2.10644197    
  -1.87057400     -0.360523999      -0.00000000       60.5431709       2.10644197    
   0.00000000       0.00000000       0.00000000       60.5431709       2.10644197    
  -1.84394205     -0.478437006      -0.00000000       60.5431709       2.10644197    
   0.00000000       0.00000000       0.00000000       60.6649208       2.10597610    
  -1.87057400     -0.360523999      -0.00000000       60.6649208       2.10597610    
  -1.88107097     -0.300992996      -0.00000000       60.6649208       2.10597610    
  -1.88967395     -0.241159007      -0.00000000       60.6649208       2.10597610    
  -1.82783401     -0.536701024      -0.00000000       60.3477783       2.10720634    
  -1.84394205     -0.478437006      -0.00000000       60.3477783       2.10720634    
   0.00000000       0.00000000       0.00000000       60.3477783       2.10720634    
  -1.80988598     -0.594424009      -0.00000000       60.3477783       2.10720634    
  -1.74518704     -0.763773024      -0.00000000       59.6855888       2.10986066    
  -1.76854098     -0.708016992      -0.00000000       59.6855888       2.10986066    
   0.00000000       0.00000000       0.00000000       59.6855888       2.10986066    
  -1.72007501     -0.818759024      -0.00000000       59.6855888       2.10986066    
   0.00000000       0.00000000       0.00000000       60.0705566       2.10832071    
  -1.76854098     -0.708016992      -0.00000000       60.0705566       2.10832071    
  -1.79011405     -0.651548028      -0.00000000       60.0705566       2.10832071    
  -1.80988598     -0.594424009      -0.00000000       60.0705566       2.10832071    
  -1.69323206     -0.872922003      -0.00000000       59.1707001       2.11190581    
  -1.72007501     -0.818759024      -0.00000000       59.1707001       2.11190581    
   0.00000000       0.00000000       0.00000000       59.1707001       2.11190581    
  -1.66468298     -0.926204979      -0.00000000       59.1707001       2.11190581    
  -1.56910396      -1.08024895      -0.00000000       57.7387466       2.11743951    
  -1.60258806      -1.02992105      -0.00000000       57.7387466       2.11743951    
   0.00000000       0.00000000       0.00000000       57.7387466       2.11743951    
  -1.53403997      -1.12949002      -0.00000000       57.7387466       2.11743951    
   0.00000000       0.00000000       0.00000000       58.5199318       2.11446095    
  -1.60258806      -1.02992105      -0.00000000       58.5199318       2.11446095    
  -1.63445795     -0.978555024      -0.00000000       58.5199318       2.11446095    
  -1.66468298     -0.926204979      -0.00000000       58.5199318       2.11446095    
  -1.49743104      -1.17759299      -0.00000000       56.8621445       2.12066674    
  -1.53403997      -1.12949002      -0.00000000       56.8621445       2.12066674    
   0.00000000       0.00000000       0.00000000       56.8621445       2.12066674    
  -1.45931494      -1.22450995      -0.00000000       56.8621445       2.12066674    
  -1.33631003      -1.35768199      -0.00000000       55.5338821       2.12519908    
  -1.37871301      -1.31459999      -0.00000000       55.5338821       2.12519908    
   0.00000000       0.00000000       0.00000000       55.5338821       2.12519908    
  -1.29255998      -1.39939702      -0.00000000       55.5338821       2.12519908    
   0.00000000       0.00000000       0.00000000       55.9897079       2.12372208    
  -1.37871301      -1.31459999      -0.00000000       55.9897079       2.12372208    
  -1.41972899      -1.27019501      -0.00000000       55.9897079       2.12372208    
  -1.45931494      -1.22450995      -0.00000000       55.9897079       2.12372208    
  -1.24750996      -1.43970299      -0.00000000       56.0155258       2.12349677    
  -1.29255998      -1.39939702      -0.00000000       56.0155258       2.12349677    
   0.00000000       0.00000000       0.00000000       56.0155258       2.12349677    
  -1.20120299      -1.47855902      -0.00000000       56.0155258       2.12349677    
  -1.05521798      -1.58604598      -0.00000000       57.8213768       2.11690736    
  -1.10500801      -1.55176699      -0.00000000       57.8213768       2.11690736    
   0.00000000       0.00000000       0.00000000       57.8213768       2.11690736    
  -1.00436401      -1.61872697      -0.00000000       57.8213768       2.11690736    
   0.00000000       0.00000000       0.00000000       56.9234352       2.12024379    
  -1.10500801      -1.55176699      -0.00000000       56.9234352       2.12024379    
  -1.15368605      -1.51592600      -0.00000000       56.9234352       2.12024379    
  -1.20120299      -1.47855902      -0.00000000       56.9234352       2.12024379    
 -0.952499986      -1.64977801      -0.00000000       58.6085281       2.11391401    
  -1.00436401      -1.61872697      -0.00000000       58.6085281       2.11391401    
   0.00000000       0.00000000       0.00000000       58.6085281       2.11391401    
 -0.899676025      -1.67916906      -0.00000000       58.6085281       2.11391401    
 -0.735987008      -1.75708497      -0.00000000       59.7438774       2.10950184    
 -0.791365981      -1.73284900      -0.00000000       59.7438774       2.10950184    
   0.00000000       0.00000000       0.00000000       59.7438774       2.10950184    
 -0.679867983      -1.77955198      -0.00000000       59.7438774       2.10950184    
   0.00000000       0.00000000       0.00000000       59.2490540       2.11143231    
 -0.791365981      -1.73284900      -0.00000000       59.2490540       2.11143231    
 -0.845947027      -1.70686805      -0.00000000       59.2490540       2.11143231    
 -0.899676025      -1.67916906      -0.00000000       59.2490540       2.11143231    
 -0.623063982      -1.80022705      -0.00000000       60.1091042       2.10807347    
 -0.679867983      -1.77955198      -0.00000000       60.1091042       2.10807347    
   0.00000000       0.00000000       0.00000000       60.1091042       2.10807347    
 -0.565632999      -1.81908906      -0.00000000       60.1091042       2.10807347    
 -0.390157014      -1.86461902      -0.00000000       60.5422668       2.10639787    
 -0.449120998      -1.85130095      -0.00000000       60.5422668       2.10639787    
   0.00000000       0.00000000       0.00000000       60.5422668       2.10639787    
 -0.330799997      -1.87605906      -0.00000000       60.5422668       2.10639787    
   0.00000000       0.00000000       0.00000000       60.3671951       2.10706210    
 -0.449120998      -1.85130095      -0.00000000       60.3671951       2.10706210    
 -0.507632971      -1.83611906      -0.00000000       60.3671951       2.10706210    
 -0.565632999      -1.81908906      -0.00000000       60.3671951       2.10706210    
 -0.271109998      -1.88560998      -0.00000000       60.6536446       2.10598922    
 -0.330799997      -1.87605906      -0.00000000       60.6536446       2.10598922    
   0.00000000       0.00000000       0.00000000       60.6536446       2.10598922    
 -0.211146995      -1.89326203      -0.00000000       60.6536446       2.10598922    
  -3.02249994E-02  -1.90476000      -0.00000000       60.7543259       2.10562062    
  -9.06440020E-02  -1.90284204      -0.00000000       60.7543259       2.10562062    
   0.00000000       0.00000000       0.00000000       60.7543259       2.10562062    
   3.02249994E-02  -1.90476000      -0.00000000       60.7543259       2.10562062    
   0.00000000       0.00000000       0.00000000       60.7223587       2.10573912    
  -9.06440020E-02  -1.90284204      -0.00000000       60.7223587       2.10573912    
 -0.150970995      -1.89900804      -0.00000000       60.7223587       2.10573912    
 -0.211146995      -1.89326203      -0.00000000       60.7223587       2.10573912    
   9.06440020E-02  -1.90284204      -0.00000000       60.7519531       2.10563636    
   3.02249994E-02  -1.90476000      -0.00000000       60.7519531       2.10563636    
   0.00000000       0.00000000       0.00000000       60.7519531       2.10563636    
  0.150970995      -1.89900804      -0.00000000       60.7519531       2.10563636    
  0.330799997      -1.87605906      -0.00000000       60.6418419       2.10605073    
  0.271109998      -1.88560998      -0.00000000       60.6418419       2.10605073    
   0.00000000       0.00000000       0.00000000       60.6418419       2.10605073    
  0.390157014      -1.86461902      -0.00000000       60.6418419       2.10605073    
   0.00000000       0.00000000       0.00000000       60.7159004       2.10577416    
  0.271109998      -1.88560998      -0.00000000       60.7159004       2.10577416    
  0.211146995      -1.89326203      -0.00000000       60.7159004       2.10577416    
  0.150970995      -1.89900804      -0.00000000       60.7159004       2.10577416    
  0.449120998      -1.85130095      -0.00000000       60.5187531       2.10651946    
  0.390157014      -1.86461902      -0.00000000       60.5187531       2.10651946    
   0.00000000       0.00000000       0.00000000       60.5187531       2.10651946    
  0.507632971      -1.83611906      -0.00000000       60.5187531       2.10651946    
  0.679867983      -1.77955198      -0.00000000       60.0421410       2.10842609    
  0.623063982      -1.80022705      -0.00000000       60.0421410       2.10842609    
   0.00000000       0.00000000       0.00000000       60.0421410       2.10842609    
  0.735987008      -1.75708497      -0.00000000       60.0421410       2.10842609    
   0.00000000       0.00000000       0.00000000       60.3218040       2.10729456    
  0.623063982      -1.80022705      -0.00000000       60.3218040       2.10729456    
  0.565632999      -1.81908906      -0.00000000       60.3218040       2.10729456    
  0.507632971      -1.83611906      -0.00000000       60.3218040       2.10729456    
  0.791365981      -1.73284900      -0.00000000       59.6541824       2.10998034    
  0.735987008      -1.75708497      -0.00000000       59.6541824       2.10998034    
   0.00000000       0.00000000       0.00000000       59.6541824       2.10998034    
  0.845947027      -1.70686805      -0.00000000       59.6541824       2.10998034    
   1.00436401      -1.61872697      -0.00000000       58.4824867       2.11461449    
  0.952499986      -1.64977801      -0.00000000       58.4824867       2.11461449    
   0.00000000       0.00000000       0.00000000       58.4824867       2.11461449    
   1.05521798      -1.58604598      -0.00000000       58.4824867       2.11461449    
   0.00000000       0.00000000       0.00000000       59.1366196       2.11204410    
  0.952499986      -1.64977801      -0.00000000       59.1366196       2.11204410    
  0.899676025      -1.67916906      -0.00000000       59.1366196       2.11204410    
  0.845947027      -1.70686805      -0.00000000       59.1366196       2.11204410    
   1.10500801      -1.55176699      -0.00000000       57.6976738       2.11762381    
   1.05521798      -1.58604598      -0.00000000       57.6976738       2.11762381    
   0.00000000       0.00000000       0.00000000       57.6976738       2.11762381    
   1.15368605      -1.51592600      -0.00000000       57.6976738       2.11762381    
   1.29255998      -1.39939702      -0.00000000       55.9383125       2.12395453    
   1.24750996      -1.43970299      -0.00000000       55.9383125       2.12395453    
   0.00000000       0.00000000       0.00000000       55.9383125       2.12395453    
   1.33631003      -1.35768199      -0.00000000       55.9383125       2.12395453    
   0.00000000       0.00000000       0.00000000       56.8163376       2.12087989    
   1.24750996      -1.43970299      -0.00000000       56.8163376       2.12087989    
   1.20120299      -1.47855902      -0.00000000       56.8163376       2.12087989    