 VARIABLES="X" "Y" "Z" "abs(p) (Pa)" "angle(p) (rad)"
ZONE N=    802,E =     800, F=FEPOINT, ET=QUADRILATERAL
   1.90499997       0.00000000      -0.00000000       52.6577339       1.88216889    
   1.90404105      -6.04420006E-02  -0.00000000       52.6577339       1.88216889    
   0.00000000       0.00000000       0.00000000       52.6577339       1.88216889    
   1.90404105       6.04420006E-02  -0.00000000       52.6577339       1.88216889    
   1.88967395      0.241159007      -0.00000000       52.6267128       1.88232470    
   1.89637399      0.181081995      -0.00000000       52.6267128       1.88232470    
   0.00000000       0.00000000       0.00000000       52.6267128       1.88232470    
   1.88107097      0.300992996      -0.00000000       52.6267128       1.88232470    
   0.00000000       0.00000000       0.00000000       52.6493912       1.88221097    
   1.89637399      0.181081995      -0.00000000       52.6493912       1.88221097    
   1.90116501      0.120823003      -0.00000000       52.6493912       1.88221097    
   1.90404105       6.04420006E-02  -0.00000000       52.6493912       1.88221097    
   1.87057400      0.360523999      -0.00000000       52.5882378       1.88251698    
   1.88107097      0.300992996      -0.00000000       52.5882378       1.88251698    
   0.00000000       0.00000000       0.00000000       52.5882378       1.88251698    
   1.85819399      0.419692010      -0.00000000       52.5882378       1.88251698    
   1.80988598      0.594424009      -0.00000000       52.4376755       1.88327467    
   1.82783401      0.536701024      -0.00000000       52.4376755       1.88327467    
   0.00000000       0.00000000       0.00000000       52.4376755       1.88327467    
   1.79011405      0.651548028      -0.00000000       52.4376755       1.88327467    
   0.00000000       0.00000000       0.00000000       52.5260010       1.88282943    
   1.82783401      0.536701024      -0.00000000       52.5260010       1.88282943    
   1.84394205      0.478437006      -0.00000000       52.5260010       1.88282943    
   1.85819399      0.419692010      -0.00000000       52.5260010       1.88282943    
   1.76854098      0.708016992      -0.00000000       52.3183823       1.88387609    
   1.79011405      0.651548028      -0.00000000       52.3183823       1.88387609    
   0.00000000       0.00000000       0.00000000       52.3183823       1.88387609    
   1.74518704      0.763773024      -0.00000000       52.3183823       1.88387609    
   1.66468298      0.926204979      -0.00000000       51.9742126       1.88560188    
   1.69323206      0.872922003      -0.00000000       51.9742126       1.88560188    
   0.00000000       0.00000000       0.00000000       51.9742126       1.88560188    
   1.63445795      0.978555024      -0.00000000       51.9742126       1.88560188    
   0.00000000       0.00000000       0.00000000       52.1637726       1.88465381    
   1.69323206      0.872922003      -0.00000000       52.1637726       1.88465381    
   1.72007501      0.818759024      -0.00000000       52.1637726       1.88465381    
   1.74518704      0.763773024      -0.00000000       52.1637726       1.88465381    
   1.60258806       1.02992105      -0.00000000       51.7545509       1.88668883    
   1.63445795      0.978555024      -0.00000000       51.7545509       1.88668883    
   0.00000000       0.00000000       0.00000000       51.7545509       1.88668883    
   1.56910396       1.08024895      -0.00000000       51.7545509       1.88668883    
   1.45931494       1.22450995      -0.00000000       51.2839813       1.88895321    
   1.49743104       1.17759299      -0.00000000       51.2839813       1.88895321    
   0.00000000       0.00000000       0.00000000       51.2839813       1.88895321    
   1.41972899       1.27019501      -0.00000000       51.2839813       1.88895321    
   0.00000000       0.00000000       0.00000000       51.5162430       1.88784993    
   1.49743104       1.17759299      -0.00000000       51.5162430       1.88784993    
   1.53403997       1.12949002      -0.00000000       51.5162430       1.88784993    
   1.56910396       1.08024895      -0.00000000       51.5162430       1.88784993    
   1.37871301       1.31459999      -0.00000000       51.1655960       1.88949740    
   1.41972899       1.27019501      -0.00000000       51.1655960       1.88949740    
   0.00000000       0.00000000       0.00000000       51.1655960       1.88949740    
   1.33631003       1.35768199      -0.00000000       51.1655960       1.88949740    
   1.20120299       1.47855902      -0.00000000       51.5515099       1.88765121    
   1.24750996       1.43970299      -0.00000000       51.5515099       1.88765121    
   0.00000000       0.00000000       0.00000000       51.5515099       1.88765121    
   1.15368605       1.51592600      -0.00000000       51.5515099       1.88765121    
   0.00000000       0.00000000       0.00000000       51.2993736       1.88886082    
   1.24750996       1.43970299      -0.00000000       51.2993736       1.88886082    
   1.29255998       1.39939702      -0.00000000       51.2993736       1.88886082    
   1.33631003       1.35768199      -0.00000000       51.2993736       1.88886082    
   1.10500801       1.55176699      -0.00000000       51.8050270       1.88641274    
   1.15368605       1.51592600      -0.00000000       51.8050270       1.88641274    
   0.00000000       0.00000000       0.00000000       51.8050270       1.88641274    
   1.05521798       1.58604598      -0.00000000       51.8050270       1.88641274    
  0.899676025       1.67916906      -0.00000000       52.2248955       1.88432837    
  0.952499986       1.64977801      -0.00000000       52.2248955       1.88432837    
   0.00000000       0.00000000       0.00000000       52.2248955       1.88432837    
  0.845947027       1.70686805      -0.00000000       52.2248955       1.88432837    
   0.00000000       0.00000000       0.00000000       52.0333672       1.88528299    
  0.952499986       1.64977801      -0.00000000       52.0333672       1.88528299    
   1.00436401       1.61872697      -0.00000000       52.0333672       1.88528299    
   1.05521798       1.58604598      -0.00000000       52.0333672       1.88528299    
  0.791365981       1.73284900      -0.00000000       52.3792114       1.88355672    
  0.845947027       1.70686805      -0.00000000       52.3792114       1.88355672    
   0.00000000       0.00000000       0.00000000       52.3792114       1.88355672    
  0.735987008       1.75708497      -0.00000000       52.3792114       1.88355672    
  0.565632999       1.81908906      -0.00000000       52.5859261       1.88252056    
  0.623063982       1.80022705      -0.00000000       52.5859261       1.88252056    
   0.00000000       0.00000000       0.00000000       52.5859261       1.88252056    
  0.507632971       1.83611906      -0.00000000       52.5859261       1.88252056    
   0.00000000       0.00000000       0.00000000       52.4980087       1.88296103    
  0.623063982       1.80022705      -0.00000000       52.4980087       1.88296103    
  0.679867983       1.77955198      -0.00000000       52.4980087       1.88296103    
  0.735987008       1.75708497      -0.00000000       52.4980087       1.88296103    
  0.449120998       1.85130095      -0.00000000       52.6480179       1.88221061    
  0.507632971       1.83611906      -0.00000000       52.6480179       1.88221061    
   0.00000000       0.00000000       0.00000000       52.6480179       1.88221061    
  0.390157014       1.86461902      -0.00000000       52.6480179       1.88221061    
  0.211146995       1.89326203      -0.00000000       52.7157326       1.88187563    
  0.271109998       1.88560998      -0.00000000       52.7157326       1.88187563    
   0.00000000       0.00000000       0.00000000       52.7157326       1.88187563    
  0.150970995       1.89900804      -0.00000000       52.7157326       1.88187563    
   0.00000000       0.00000000       0.00000000       52.6893806       1.88200581    
  0.271109998       1.88560998      -0.00000000       52.6893806       1.88200581    
  0.330799997       1.87605906      -0.00000000       52.6893806       1.88200581    
  0.390157014       1.86461902      -0.00000000       52.6893806       1.88200581    
   9.06440020E-02   1.90284204      -0.00000000       52.7276764       1.88181746    
  0.150970995       1.89900804      -0.00000000       52.7276764       1.88181746    
   0.00000000       0.00000000       0.00000000       52.7276764       1.88181746    
   3.02249994E-02   1.90476000      -0.00000000       52.7276764       1.88181746    
 -0.150970995       1.89900804      -0.00000000       52.7131233       1.88188934    
  -9.06440020E-02   1.90284204      -0.00000000       52.7131233       1.88188934    
   0.00000000       0.00000000       0.00000000       52.7131233       1.88188934    
 -0.211146995       1.89326203      -0.00000000       52.7131233       1.88188934    
   0.00000000       0.00000000       0.00000000       52.7268715       1.88182127    
  -9.06440020E-02   1.90284204      -0.00000000       52.7268715       1.88182127    
  -3.02249994E-02   1.90476000      -0.00000000       52.7268715       1.88182127    
   3.02249994E-02   1.90476000      -0.00000000       52.7268715       1.88182127    
 -0.271109998       1.88560998      -0.00000000       52.6853142       1.88202667    
 -0.211146995       1.89326203      -0.00000000       52.6853142       1.88202667    
   0.00000000       0.00000000       0.00000000       52.6853142       1.88202667    
 -0.330799997       1.87605906      -0.00000000       52.6853142       1.88202667    
 -0.507632971       1.83611906      -0.00000000       52.5717659       1.88259351    
 -0.449120998       1.85130095      -0.00000000       52.5717659       1.88259351    
   0.00000000       0.00000000       0.00000000       52.5717659       1.88259351    
 -0.565632999       1.81908906      -0.00000000       52.5717659       1.88259351    
   0.00000000       0.00000000       0.00000000       52.6403580       1.88225055    
 -0.449120998       1.85130095      -0.00000000       52.6403580       1.88225055    
 -0.390157014       1.86461902      -0.00000000       52.6403580       1.88225055    
 -0.330799997       1.87605906      -0.00000000       52.6403580       1.88225055    
 -0.623063982       1.80022705      -0.00000000       52.4777832       1.88306665    
 -0.565632999       1.81908906      -0.00000000       52.4777832       1.88306665    
   0.00000000       0.00000000       0.00000000       52.4777832       1.88306665    
 -0.679867983       1.77955198      -0.00000000       52.4777832       1.88306665    
 -0.845947027       1.70686805      -0.00000000       52.1938438       1.88449335    
 -0.791365981       1.73284900      -0.00000000       52.1938438       1.88449335    
   0.00000000       0.00000000       0.00000000       52.1938438       1.88449335    
 -0.899676025       1.67916906      -0.00000000       52.1938438       1.88449335    
   0.00000000       0.00000000       0.00000000       52.3533669       1.88369262    
 -0.791365981       1.73284900      -0.00000000       52.3533669       1.88369262    
 -0.735987008       1.75708497      -0.00000000       52.3533669       1.88369262    
 -0.679867983       1.77955198      -0.00000000       52.3533669       1.88369262    
 -0.952499986       1.64977801      -0.00000000       52.0001678       1.88546157    
 -0.899676025       1.67916906      -0.00000000       52.0001678       1.88546157    
   0.00000000       0.00000000       0.00000000       52.0001678       1.88546157    
  -1.00436401       1.61872697      -0.00000000       52.0001678       1.88546157    
  -1.15368605       1.51592600      -0.00000000       51.5346756       1.88774872    
  -1.10500801       1.55176699      -0.00000000       51.5346756       1.88774872    
   0.00000000       0.00000000       0.00000000       51.5346756       1.88774872    
  -1.20120299       1.47855902      -0.00000000       51.5346756       1.88774872    
   0.00000000       0.00000000       0.00000000       51.7765045       1.88656998    
  -1.10500801       1.55176699      -0.00000000       51.7765045       1.88656998    
  -1.05521798       1.58604598      -0.00000000       51.7765045       1.88656998    
  -1.00436401       1.61872697      -0.00000000       51.7765045       1.88656998    
  -1.24750996       1.43970299      -0.00000000       51.2997971       1.88886595    
  -1.20120299       1.47855902      -0.00000000       51.2997971       1.88886595    
   0.00000000       0.00000000       0.00000000       51.2997971       1.88886595    
  -1.29255998       1.39939702      -0.00000000       51.2997971       1.88886595    
  -1.41972899       1.27019501      -0.00000000       51.3131828       1.88878500    
  -1.37871301       1.31459999      -0.00000000       51.3131828       1.88878500    
   0.00000000       0.00000000       0.00000000       51.3131828       1.88878500    
  -1.45931494       1.22450995      -0.00000000       51.3131828       1.88878500    
   0.00000000       0.00000000       0.00000000       51.1802483       1.88941669    
  -1.37871301       1.31459999      -0.00000000       51.1802483       1.88941669    
  -1.33631003       1.35768199      -0.00000000       51.1802483       1.88941669    
  -1.29255998       1.39939702      -0.00000000       51.1802483       1.88941669    
  -1.49743104       1.17759299      -0.00000000       51.5640411       1.88758278    
  -1.45931494       1.22450995      -0.00000000       51.5640411       1.88758278    
   0.00000000       0.00000000       0.00000000       51.5640411       1.88758278    
  -1.53403997       1.12949002      -0.00000000       51.5640411       1.88758278    
  -1.63445795      0.978555024      -0.00000000       52.0437012       1.88522780    
  -1.60258806       1.02992105      -0.00000000       52.0437012       1.88522780    
   0.00000000       0.00000000       0.00000000       52.0437012       1.88522780    
  -1.66468298      0.926204979      -0.00000000       52.0437012       1.88522780    
   0.00000000       0.00000000       0.00000000       51.8163033       1.88635182    
  -1.60258806       1.02992105      -0.00000000       51.8163033       1.88635182    
  -1.56910396       1.08024895      -0.00000000       51.8163033       1.88635182    
  -1.53403997       1.12949002      -0.00000000       51.8163033       1.88635182    
  -1.69323206      0.872922003      -0.00000000       52.2342262       1.88427782    
  -1.66468298      0.926204979      -0.00000000       52.2342262       1.88427782    
   0.00000000       0.00000000       0.00000000       52.2342262       1.88427782    
  -1.72007501      0.818759024      -0.00000000       52.2342262       1.88427782    
  -1.79011405      0.651548028      -0.00000000       52.5057068       1.88291955    
  -1.76854098      0.708016992      -0.00000000       52.5057068       1.88291955    
   0.00000000       0.00000000       0.00000000       52.5057068       1.88291955    
  -1.80988598      0.594424009      -0.00000000       52.5057068       1.88291955    
   0.00000000       0.00000000       0.00000000       52.3875656       1.88351119    
  -1.76854098      0.708016992      -0.00000000       52.3875656       1.88351119    
  -1.74518704      0.763773024      -0.00000000       52.3875656       1.88351119    
  -1.72007501      0.818759024      -0.00000000       52.3875656       1.88351119    
  -1.82783401      0.536701024      -0.00000000       52.5930481       1.88248241    
  -1.80988598      0.594424009      -0.00000000       52.5930481       1.88248241    
   0.00000000       0.00000000       0.00000000       52.5930481       1.88248241    
  -1.84394205      0.478437006      -0.00000000       52.5930481       1.88248241    
  -1.88107097      0.300992996      -0.00000000       52.6955109       1.88197327    
  -1.87057400      0.360523999      -0.00000000       52.6955109       1.88197327    
   0.00000000       0.00000000       0.00000000       52.6955109       1.88197327    
  -1.88967395      0.241159007      -0.00000000       52.6955109       1.88197327    
   0.00000000       0.00000000       0.00000000       52.6547203       1.88217545    
  -1.87057400      0.360523999      -0.00000000       52.6547203       1.88217545    
  -1.85819399      0.419692010      -0.00000000       52.6547203       1.88217545    
  -1.84394205      0.478437006      -0.00000000       52.6547203       1.88217545    
  -1.89637399      0.181081995      -0.00000000       52.7216187       1.88184512    
  -1.88967395      0.241159007      -0.00000000       52.7216187       1.88184512    
   0.00000000       0.00000000       0.00000000       52.7216187       1.88184512    
  -1.90116501      0.120823003      -0.00000000       52.7216187       1.88184512    
  -1.90404105      -6.04420006E-02  -0.00000000       52.7321587       1.88179362    
  -1.90499997       0.00000000      -0.00000000       52.7321587       1.88179362    
   0.00000000       0.00000000       0.00000000       52.7321587       1.88179362    
  -1.90116501     -0.120823003      -0.00000000       52.7321587       1.88179362    
   0.00000000       0.00000000       0.00000000       52.7332878       1.88178694    
  -1.90499997       0.00000000      -0.00000000       52.7332878       1.88178694    
  -1.90404105       6.04420006E-02  -0.00000000       52.7332878       1.88178694    
  -1.90116501      0.120823003      -0.00000000       52.7332878       1.88178694    
  -1.89637399     -0.181081995      -0.00000000       52.7180519       1.88186336    
  -1.90116501     -0.120823003      -0.00000000       52.7180519       1.88186336    
   0.00000000       0.00000000       0.00000000       52.7180519       1.88186336    
  -1.88967395     -0.241159007      -0.00000000       52.7180519       1.88186336    
  -1.85819399     -0.419692010      -0.00000000       52.6444206       1.88222945    
  -1.87057400     -0.360523999      -0.00000000       52.6444206       1.88222945    
   0.00000000       0.00000000       0.00000000       52.6444206       1.88222945    
  -1.84394205     -0.478437006      -0.00000000       52.6444206       1.88222945    
   0.00000000       0.00000000       0.00000000       52.6897850       1.88200355    
  -1.87057400     -0.360523999      -0.00000000       52.6897850       1.88200355    
  -1.88107097     -0.300992996      -0.00000000       52.6897850       1.88200355    
  -1.88967395     -0.241159007      -0.00000000       52.6897850       1.88200355    
  -1.82783401     -0.536701024      -0.00000000       52.5753517       1.88257492    
  -1.84394205     -0.478437006      -0.00000000       52.5753517       1.88257492    
   0.00000000       0.00000000       0.00000000       52.5753517       1.88257492    
  -1.80988598     -0.594424009      -0.00000000       52.5753517       1.88257492    
  -1.74518704     -0.763773024      -0.00000000       52.3557701       1.88368022    
  -1.76854098     -0.708016992      -0.00000000       52.3557701       1.88368022    
   0.00000000       0.00000000       0.00000000       52.3557701       1.88368022    
  -1.72007501     -0.818759024      -0.00000000       52.3557701       1.88368022    
   0.00000000       0.00000000       0.00000000       52.4807587       1.88305175    
  -1.76854098     -0.708016992      -0.00000000       52.4807587       1.88305175    
  -1.79011405     -0.651548028      -0.00000000       52.4807587       1.88305175    
  -1.80988598     -0.594424009      -0.00000000       52.4807587       1.88305175    
  -1.69323206     -0.872922003      -0.00000000       52.1956406       1.88448381    
  -1.72007501     -0.818759024      -0.00000000       52.1956406       1.88448381    
   0.00000000       0.00000000       0.00000000       52.1956406       1.88448381    
  -1.66468298     -0.926204979      -0.00000000       52.1956406       1.88448381    
  -1.56910396      -1.08024895      -0.00000000       51.7769356       1.88656735    
  -1.60258806      -1.02992105      -0.00000000       51.7769356       1.88656735    
   0.00000000       0.00000000       0.00000000       51.7769356       1.88656735    
  -1.53403997      -1.12949002      -0.00000000       51.7769356       1.88656735    
   0.00000000       0.00000000       0.00000000       52.0013695       1.88545573    
  -1.60258806      -1.02992105      -0.00000000       52.0013695       1.88545573    
  -1.63445795     -0.978555024      -0.00000000       52.0013695       1.88545573    
  -1.66468298     -0.926204979      -0.00000000       52.0013695       1.88545573    
  -1.49743104      -1.17759299      -0.00000000       51.5343285       1.88774920    
  -1.53403997      -1.12949002      -0.00000000       51.5343285       1.88774920    
   0.00000000       0.00000000       0.00000000       51.5343285       1.88774920    
  -1.45931494      -1.22450995      -0.00000000       51.5343285       1.88774920    
  -1.33631003      -1.35768199      -0.00000000       51.1793594       1.88942242    
  -1.37871301      -1.31459999      -0.00000000       51.1793594       1.88942242    
   0.00000000       0.00000000       0.00000000       51.1793594       1.88942242    
  -1.29255998      -1.39939702      -0.00000000       51.1793594       1.88942242    
   0.00000000       0.00000000       0.00000000       51.2988358       1.88887012    
  -1.37871301      -1.31459999      -0.00000000       51.2988358       1.88887012    
  -1.41972899      -1.27019501      -0.00000000       51.2988358       1.88887012    
  -1.45931494      -1.22450995      -0.00000000       51.2988358       1.88887012    
  -1.24750996      -1.43970299      -0.00000000       51.3124695       1.88878965    
  -1.29255998      -1.39939702      -0.00000000       51.3124695       1.88878965    
   0.00000000       0.00000000       0.00000000       51.3124695       1.88878965    
  -1.20120299      -1.47855902      -0.00000000       51.3124695       1.88878965    
  -1.05521798      -1.58604598      -0.00000000       51.8143005       1.88636196    
  -1.10500801      -1.55176699      -0.00000000       51.8143005       1.88636196    
   0.00000000       0.00000000       0.00000000       51.8143005       1.88636196    
  -1.00436401      -1.61872697      -0.00000000       51.8143005       1.88636196    
   0.00000000       0.00000000       0.00000000       51.5626907       1.88758969    
  -1.10500801      -1.55176699      -0.00000000       51.5626907       1.88758969    
  -1.15368605      -1.51592600      -0.00000000       51.5626907       1.88758969    
  -1.20120299      -1.47855902      -0.00000000       51.5626907       1.88758969    
 -0.952499986      -1.64977801      -0.00000000       52.0410614       1.88524091    
  -1.00436401      -1.61872697      -0.00000000       52.0410614       1.88524091    
   0.00000000       0.00000000       0.00000000       52.0410614       1.88524091    
 -0.899676025      -1.67916906      -0.00000000       52.0410614       1.88524091    
 -0.735987008      -1.75708497      -0.00000000       52.3838692       1.88353002    
 -0.791365981      -1.73284900      -0.00000000       52.3838692       1.88353002    
   0.00000000       0.00000000       0.00000000       52.3838692       1.88353002    
 -0.679867983      -1.77955198      -0.00000000       52.3838692       1.88353002    
   0.00000000       0.00000000       0.00000000       52.2309761       1.88429487    
 -0.791365981      -1.73284900      -0.00000000       52.2309761       1.88429487    
 -0.845947027      -1.70686805      -0.00000000       52.2309761       1.88429487    
 -0.899676025      -1.67916906      -0.00000000       52.2309761       1.88429487    
 -0.623063982      -1.80022705      -0.00000000       52.5013046       1.88294196    
 -0.679867983      -1.77955198      -0.00000000       52.5013046       1.88294196    
   0.00000000       0.00000000       0.00000000       52.5013046       1.88294196    
 -0.565632999      -1.81908906      -0.00000000       52.5013046       1.88294196    
 -0.390157014      -1.86461902      -0.00000000       52.6494217       1.88220274    
 -0.449120998      -1.85130095      -0.00000000       52.6494217       1.88220274    
   0.00000000       0.00000000       0.00000000       52.6494217       1.88220274    
 -0.330799997      -1.87605906      -0.00000000       52.6494217       1.88220274    
   0.00000000       0.00000000       0.00000000       52.5882225       1.88250732    
 -0.449120998      -1.85130095      -0.00000000       52.5882225       1.88250732    
 -0.507632971      -1.83611906      -0.00000000       52.5882225       1.88250732    
 -0.565632999      -1.81908906      -0.00000000       52.5882225       1.88250732    
 -0.271109998      -1.88560998      -0.00000000       52.6899300       1.88200176    
 -0.330799997      -1.87605906      -0.00000000       52.6899300       1.88200176    
   0.00000000       0.00000000       0.00000000       52.6899300       1.88200176    
 -0.211146995      -1.89326203      -0.00000000       52.6899300       1.88200176    
  -3.02249994E-02  -1.90476000      -0.00000000       52.7269211       1.88182092    
  -9.06440020E-02  -1.90284204      -0.00000000       52.7269211       1.88182092    
   0.00000000       0.00000000       0.00000000       52.7269211       1.88182092    
   3.02249994E-02  -1.90476000      -0.00000000       52.7269211       1.88182092    
   0.00000000       0.00000000       0.00000000       52.7156715       1.88187516    
  -9.06440020E-02  -1.90284204      -0.00000000       52.7156715       1.88187516    
 -0.150970995      -1.89900804      -0.00000000       52.7156715       1.88187516    
 -0.211146995      -1.89326203      -0.00000000       52.7156715       1.88187516    
   9.06440020E-02  -1.90284204      -0.00000000       52.7255363       1.88182747    
   3.02249994E-02  -1.90476000      -0.00000000       52.7255363       1.88182747    
   0.00000000       0.00000000       0.00000000       52.7255363       1.88182747    
  0.150970995      -1.89900804      -0.00000000       52.7255363       1.88182747    
  0.330799997      -1.87605906      -0.00000000       52.6823921       1.88204193    
  0.271109998      -1.88560998      -0.00000000       52.6823921       1.88204193    
   0.00000000       0.00000000       0.00000000       52.6823921       1.88204193    
  0.390157014      -1.86461902      -0.00000000       52.6823921       1.88204193    
   0.00000000       0.00000000       0.00000000       52.7111015       1.88190055    
  0.271109998      -1.88560998      -0.00000000       52.7111015       1.88190055    
  0.211146995      -1.89326203      -0.00000000       52.7111015       1.88190055    
  0.150970995      -1.89900804      -0.00000000       52.7111015       1.88190055    
  0.449120998      -1.85130095      -0.00000000       52.6365547       1.88226998    
  0.390157014      -1.86461902      -0.00000000       52.6365547       1.88226998    
   0.00000000       0.00000000       0.00000000       52.6365547       1.88226998    
  0.507632971      -1.83611906      -0.00000000       52.6365547       1.88226998    
  0.679867983      -1.77955198      -0.00000000       52.4715500       1.88309920    
  0.623063982      -1.80022705      -0.00000000       52.4715500       1.88309920    
   0.00000000       0.00000000       0.00000000       52.4715500       1.88309920    
  0.735987008      -1.75708497      -0.00000000       52.4715500       1.88309920    
   0.00000000       0.00000000       0.00000000       52.5668106       1.88262033    
  0.623063982      -1.80022705      -0.00000000       52.5668106       1.88262033    
  0.565632999      -1.81908906      -0.00000000       52.5668106       1.88262033    
  0.507632971      -1.83611906      -0.00000000       52.5668106       1.88262033    
  0.791365981      -1.73284900      -0.00000000       52.3453979       1.88373482    
  0.735987008      -1.75708497      -0.00000000       52.3453979       1.88373482    
   0.00000000       0.00000000       0.00000000       52.3453979       1.88373482    
  0.845947027      -1.70686805      -0.00000000       52.3453979       1.88373482    
   1.00436401      -1.61872697      -0.00000000       51.9889984       1.88552165    
  0.952499986      -1.64977801      -0.00000000       51.9889984       1.88552165    
   0.00000000       0.00000000       0.00000000       51.9889984       1.88552165    
   1.05521798      -1.58604598      -0.00000000       51.9889984       1.88552165    
   0.00000000       0.00000000       0.00000000       52.1843224       1.88454390    
  0.952499986      -1.64977801      -0.00000000       52.1843224       1.88454390    
  0.899676025      -1.67916906      -0.00000000       52.1843224       1.88454390    
  0.845947027      -1.70686805      -0.00000000       52.1843224       1.88454390    
   1.10500801      -1.55176699      -0.00000000       51.7633476       1.88664043    
   1.05521798      -1.58604598      -0.00000000       51.7633476       1.88664043    
   0.00000000       0.00000000       0.00000000       51.7633476       1.88664043    
   1.15368605      -1.51592600      -0.00000000       51.7633476       1.88664043    
   1.29255998      -1.39939702      -0.00000000       51.2822266       1.88895905    
   1.24750996      -1.43970299      -0.00000000       51.2822266       1.88895905    
   0.00000000       0.00000000       0.00000000       51.2822266       1.88895905    
   1.33631003      -1.35768199      -0.00000000       51.2822266       1.88895905    
   0.00000000       0.00000000       0.00000000       51.5193748       1.88783014    
   1.24750996      -1.43970299      -0.00000000       51.5193748       1.88783014    
   1.20120299      -1.47855902      -0.00000000       51.5193748       1.88783014    