 VARIABLES="X" "Y" "Z" "abs(p) (Pa)" "angle(p) (rad)"
ZONE N=    802,E =     800, F=FEPOINT, ET=QUADRILATERAL
   1.90499997       0.00000000      -0.00000000       179.668152      -1.52458274    
   1.90404105      -6.04420006E-02  -0.00000000       179.668152      -1.52458274    
   0.00000000       0.00000000       0.00000000       179.668152      -1.52458274    
   1.90404105       6.04420006E-02  -0.00000000       179.668152      -1.52458274    
   1.88967395      0.241159007      -0.00000000       179.304535      -1.52455676    
   1.89637399      0.181081995      -0.00000000       179.304535      -1.52455676    
   0.00000000       0.00000000       0.00000000       179.304535      -1.52455676    
   1.88107097      0.300992996      -0.00000000       179.304535      -1.52455676    
   0.00000000       0.00000000       0.00000000       179.553177      -1.52457666    
   1.89637399      0.181081995      -0.00000000       179.553177      -1.52457666    
   1.90116501      0.120823003      -0.00000000       179.553177      -1.52457666    
   1.90404105       6.04420006E-02  -0.00000000       179.553177      -1.52457666    
   1.87057400      0.360523999      -0.00000000       179.045303      -1.52447963    
   1.88107097      0.300992996      -0.00000000       179.045303      -1.52447963    
   0.00000000       0.00000000       0.00000000       179.045303      -1.52447963    
   1.85819399      0.419692010      -0.00000000       179.045303      -1.52447963    
   1.80988598      0.594424009      -0.00000000       178.822754      -1.52399111    
   1.82783401      0.536701024      -0.00000000       178.822754      -1.52399111    
   0.00000000       0.00000000       0.00000000       178.822754      -1.52399111    
   1.79011405      0.651548028      -0.00000000       178.822754      -1.52399111    
   0.00000000       0.00000000       0.00000000       178.825363      -1.52431571    
   1.82783401      0.536701024      -0.00000000       178.825363      -1.52431571    
   1.84394205      0.478437006      -0.00000000       178.825363      -1.52431571    
   1.85819399      0.419692010      -0.00000000       178.825363      -1.52431571    
   1.76854098      0.708016992      -0.00000000       179.271637      -1.52341282    
   1.79011405      0.651548028      -0.00000000       179.271637      -1.52341282    
   0.00000000       0.00000000       0.00000000       179.271637      -1.52341282    
   1.74518704      0.763773024      -0.00000000       179.271637      -1.52341282    
   1.66468298      0.926204979      -0.00000000       181.655106      -1.52138495    
   1.69323206      0.872922003      -0.00000000       181.655106      -1.52138495    
   0.00000000       0.00000000       0.00000000       181.655106      -1.52138495    
   1.63445795      0.978555024      -0.00000000       181.655106      -1.52138495    
   0.00000000       0.00000000       0.00000000       180.209854      -1.52255321    
   1.69323206      0.872922003      -0.00000000       180.209854      -1.52255321    
   1.72007501      0.818759024      -0.00000000       180.209854      -1.52255321    
   1.74518704      0.763773024      -0.00000000       180.209854      -1.52255321    
   1.60258806       1.02992105      -0.00000000       183.389130      -1.51996660    
   1.63445795      0.978555024      -0.00000000       183.389130      -1.51996660    
   0.00000000       0.00000000       0.00000000       183.389130      -1.51996660    
   1.56910396       1.08024895      -0.00000000       183.389130      -1.51996660    
   1.45931494       1.22450995      -0.00000000       185.915192      -1.51681817    
   1.49743104       1.17759299      -0.00000000       185.915192      -1.51681817    
   0.00000000       0.00000000       0.00000000       185.915192      -1.51681817    
   1.41972899       1.27019501      -0.00000000       185.915192      -1.51681817    
   0.00000000       0.00000000       0.00000000       185.135712      -1.51836026    
   1.49743104       1.17759299      -0.00000000       185.135712      -1.51836026    
   1.53403997       1.12949002      -0.00000000       185.135712      -1.51836026    
   1.56910396       1.08024895      -0.00000000       185.135712      -1.51836026    
   1.37871301       1.31459999      -0.00000000       182.433289      -1.51622081    
   1.41972899       1.27019501      -0.00000000       182.433289      -1.51622081    
   0.00000000       0.00000000       0.00000000       182.433289      -1.51622081    
   1.33631003       1.35768199      -0.00000000       182.433289      -1.51622081    
   1.20120299       1.47855902      -0.00000000       154.285034      -1.52103472    
   1.24750996       1.43970299      -0.00000000       154.285034      -1.52103472    
   0.00000000       0.00000000       0.00000000       154.285034      -1.52103472    
   1.15368605       1.51592600      -0.00000000       154.285034      -1.52103472    
   0.00000000       0.00000000       0.00000000       170.501984      -1.51790178    
   1.24750996       1.43970299      -0.00000000       170.501984      -1.51790178    
   1.29255998       1.39939702      -0.00000000       170.501984      -1.51790178    
   1.33631003       1.35768199      -0.00000000       170.501984      -1.51790178    
   1.10500801       1.55176699      -0.00000000       137.476791      -1.52469218    
   1.15368605       1.51592600      -0.00000000       137.476791      -1.52469218    
   0.00000000       0.00000000       0.00000000       137.476791      -1.52469218    
   1.05521798       1.58604598      -0.00000000       137.476791      -1.52469218    
  0.899676025       1.67916906      -0.00000000       105.185890      -1.53251863    
  0.952499986       1.64977801      -0.00000000       105.185890      -1.53251863    
   0.00000000       0.00000000       0.00000000       105.185890      -1.53251863    
  0.845947027       1.70686805      -0.00000000       105.185890      -1.53251863    
   0.00000000       0.00000000       0.00000000       121.023697      -1.52857101    
  0.952499986       1.64977801      -0.00000000       121.023697      -1.52857101    
   1.00436401       1.61872697      -0.00000000       121.023697      -1.52857101    
   1.05521798       1.58604598      -0.00000000       121.023697      -1.52857101    
  0.791365981       1.73284900      -0.00000000       90.1345215      -1.53629494    
  0.845947027       1.70686805      -0.00000000       90.1345215      -1.53629494    
   0.00000000       0.00000000       0.00000000       90.1345215      -1.53629494    
  0.735987008       1.75708497      -0.00000000       90.1345215      -1.53629494    
  0.565632999       1.81908906      -0.00000000       62.0746269      -1.54231501    
  0.623063982       1.80022705      -0.00000000       62.0746269      -1.54231501    
   0.00000000       0.00000000       0.00000000       62.0746269      -1.54231501    
  0.507632971       1.83611906      -0.00000000       62.0746269      -1.54231501    
   0.00000000       0.00000000       0.00000000       75.8040619      -1.53962982    
  0.623063982       1.80022705      -0.00000000       75.8040619      -1.53962982    
  0.679867983       1.77955198      -0.00000000       75.8040619      -1.53962982    
  0.735987008       1.75708497      -0.00000000       75.8040619      -1.53962982    
  0.449120998       1.85130095      -0.00000000       48.7678185      -1.54399562    
  0.507632971       1.83611906      -0.00000000       48.7678185      -1.54399562    
   0.00000000       0.00000000       0.00000000       48.7678185      -1.54399562    
  0.390157014       1.86461902      -0.00000000       48.7678185      -1.54399562    
  0.211146995       1.89326203      -0.00000000       23.0417252      -1.53858304    
  0.271109998       1.88560998      -0.00000000       23.0417252      -1.53858304    
   0.00000000       0.00000000       0.00000000       23.0417252      -1.53858304    
  0.150970995       1.89900804      -0.00000000       23.0417252      -1.53858304    
   0.00000000       0.00000000       0.00000000       35.7916908      -1.54372549    
  0.271109998       1.88560998      -0.00000000       35.7916908      -1.54372549    
  0.330799997       1.87605906      -0.00000000       35.7916908      -1.54372549    
  0.390157014       1.86461902      -0.00000000       35.7916908      -1.54372549    
   9.06440020E-02   1.90284204      -0.00000000       10.3613548      -1.51135945    
  0.150970995       1.89900804      -0.00000000       10.3613548      -1.51135945    
   0.00000000       0.00000000       0.00000000       10.3613548      -1.51135945    
   3.02249994E-02   1.90476000      -0.00000000       10.3613548      -1.51135945    
 -0.150970995       1.89900804      -0.00000000       14.9921598       1.52736270    
  -9.06440020E-02   1.90284204      -0.00000000       14.9921598       1.52736270    
   0.00000000       0.00000000       0.00000000       14.9921598       1.52736270    
 -0.211146995       1.89326203      -0.00000000       14.9921598       1.52736270    
   0.00000000       0.00000000       0.00000000       2.40003848       1.32527483    
  -9.06440020E-02   1.90284204      -0.00000000       2.40003848       1.32527483    
  -3.02249994E-02   1.90476000      -0.00000000       2.40003848       1.32527483    
   3.02249994E-02   1.90476000      -0.00000000       2.40003848       1.32527483    
 -0.271109998       1.88560998      -0.00000000       27.7471123       1.54118896    
 -0.211146995       1.89326203      -0.00000000       27.7471123       1.54118896    
   0.00000000       0.00000000       0.00000000       27.7471123       1.54118896    
 -0.330799997       1.87605906      -0.00000000       27.7471123       1.54118896    
 -0.507632971       1.83611906      -0.00000000       54.1252518       1.54272437    
 -0.449120998       1.85130095      -0.00000000       54.1252518       1.54272437    
   0.00000000       0.00000000       0.00000000       54.1252518       1.54272437    
 -0.565632999       1.81908906      -0.00000000       54.1252518       1.54272437    
   0.00000000       0.00000000       0.00000000       40.7775841       1.54360294    
 -0.449120998       1.85130095      -0.00000000       40.7775841       1.54360294    
 -0.390157014       1.86461902      -0.00000000       40.7775841       1.54360294    
 -0.330799997       1.87605906      -0.00000000       40.7775841       1.54360294    
 -0.623063982       1.80022705      -0.00000000       67.9205399       1.54032719    
 -0.565632999       1.81908906      -0.00000000       67.9205399       1.54032719    
   0.00000000       0.00000000       0.00000000       67.9205399       1.54032719    
 -0.679867983       1.77955198      -0.00000000       67.9205399       1.54032719    
 -0.845947027       1.70686805      -0.00000000       97.3683624       1.53331578    
 -0.791365981       1.73284900      -0.00000000       97.3683624       1.53331578    
   0.00000000       0.00000000       0.00000000       97.3683624       1.53331578    
 -0.899676025       1.67916906      -0.00000000       97.3683624       1.53331578    
   0.00000000       0.00000000       0.00000000       82.3315582       1.53701949    
 -0.791365981       1.73284900      -0.00000000       82.3315582       1.53701949    
 -0.735987008       1.75708497      -0.00000000       82.3315582       1.53701949    
 -0.679867983       1.77955198      -0.00000000       82.3315582       1.53701949    
 -0.952499986       1.64977801      -0.00000000       113.066498       1.52946198    
 -0.899676025       1.67916906      -0.00000000       113.066498       1.52946198    
   0.00000000       0.00000000       0.00000000       113.066498       1.52946198    
  -1.00436401       1.61872697      -0.00000000       113.066498       1.52946198    
  -1.15368605       1.51592600      -0.00000000       145.504440       1.52220178    
  -1.10500801       1.55176699      -0.00000000       145.504440       1.52220178    
   0.00000000       0.00000000       0.00000000       145.504440       1.52220178    
  -1.20120299       1.47855902      -0.00000000       145.504440       1.52220178    
   0.00000000       0.00000000       0.00000000       129.209854       1.52571034    
  -1.10500801       1.55176699      -0.00000000       129.209854       1.52571034    
  -1.05521798       1.58604598      -0.00000000       129.209854       1.52571034    
  -1.00436401       1.61872697      -0.00000000       129.209854       1.52571034    
  -1.24750996       1.43970299      -0.00000000       160.975388       1.51925302    
  -1.20120299       1.47855902      -0.00000000       160.975388       1.51925302    
   0.00000000       0.00000000       0.00000000       160.975388       1.51925302    
  -1.29255998       1.39939702      -0.00000000       160.975388       1.51925302    
  -1.41972899       1.27019501      -0.00000000       175.652069       1.51862097    
  -1.37871301       1.31459999      -0.00000000       175.652069       1.51862097    
   0.00000000       0.00000000       0.00000000       175.652069       1.51862097    
  -1.45931494       1.22450995      -0.00000000       175.652069       1.51862097    
   0.00000000       0.00000000       0.00000000       172.400406       1.51773489    
  -1.37871301       1.31459999      -0.00000000       172.400406       1.51773489    
  -1.33631003       1.35768199      -0.00000000       172.400406       1.51773489    
  -1.29255998       1.39939702      -0.00000000       172.400406       1.51773489    
  -1.49743104       1.17759299      -0.00000000       174.700134       1.52055430    
  -1.45931494       1.22450995      -0.00000000       174.700134       1.52055430    
   0.00000000       0.00000000       0.00000000       174.700134       1.52055430    
  -1.53403997       1.12949002      -0.00000000       174.700134       1.52055430    
  -1.63445795      0.978555024      -0.00000000       171.609741       1.52410030    
  -1.60258806       1.02992105      -0.00000000       171.609741       1.52410030    
   0.00000000       0.00000000       0.00000000       171.609741       1.52410030    
  -1.66468298      0.926204979      -0.00000000       171.609741       1.52410030    
   0.00000000       0.00000000       0.00000000       173.054352       1.52247036    
  -1.60258806       1.02992105      -0.00000000       173.054352       1.52247036    
  -1.56910396       1.08024895      -0.00000000       173.054352       1.52247036    
  -1.53403997       1.12949002      -0.00000000       173.054352       1.52247036    
  -1.69323206      0.872922003      -0.00000000       170.589172       1.52538455    
  -1.66468298      0.926204979      -0.00000000       170.589172       1.52538455    
   0.00000000       0.00000000       0.00000000       170.589172       1.52538455    
  -1.72007501      0.818759024      -0.00000000       170.589172       1.52538455    
  -1.79011405      0.651548028      -0.00000000       170.239456       1.52682483    
  -1.76854098      0.708016992      -0.00000000       170.239456       1.52682483    
   0.00000000       0.00000000       0.00000000       170.239456       1.52682483    
  -1.80988598      0.594424009      -0.00000000       170.239456       1.52682483    
   0.00000000       0.00000000       0.00000000       170.142380       1.52628112    
  -1.76854098      0.708016992      -0.00000000       170.142380       1.52628112    
  -1.74518704      0.763773024      -0.00000000       170.142380       1.52628112    
  -1.72007501      0.818759024      -0.00000000       170.142380       1.52628112    
  -1.82783401      0.536701024      -0.00000000       170.685562       1.52710736    
  -1.80988598      0.594424009      -0.00000000       170.685562       1.52710736    
   0.00000000       0.00000000       0.00000000       170.685562       1.52710736    
  -1.84394205      0.478437006      -0.00000000       170.685562       1.52710736    
  -1.88107097      0.300992996      -0.00000000       171.876984       1.52723467    
  -1.87057400      0.360523999      -0.00000000       171.876984       1.52723467    
   0.00000000       0.00000000       0.00000000       171.876984       1.52723467    
  -1.88967395      0.241159007      -0.00000000       171.876984       1.52723467    
   0.00000000       0.00000000       0.00000000       171.271133       1.52722251    
  -1.87057400      0.360523999      -0.00000000       171.271133       1.52722251    
  -1.85819399      0.419692010      -0.00000000       171.271133       1.52722251    
  -1.84394205      0.478437006      -0.00000000       171.271133       1.52722251    
  -1.89637399      0.181081995      -0.00000000       172.385986       1.52720058    
  -1.88967395      0.241159007      -0.00000000       172.385986       1.52720058    
   0.00000000       0.00000000       0.00000000       172.385986       1.52720058    
  -1.90116501      0.120823003      -0.00000000       172.385986       1.52720058    
  -1.90404105      -6.04420006E-02  -0.00000000       172.695160       1.52714813    
  -1.90499997       0.00000000      -0.00000000       172.695160       1.52714813    
   0.00000000       0.00000000       0.00000000       172.695160       1.52714813    
  -1.90116501     -0.120823003      -0.00000000       172.695160       1.52714813    
   0.00000000       0.00000000       0.00000000       172.679108       1.52716243    
  -1.90499997       0.00000000      -0.00000000       172.679108       1.52716243    
  -1.90404105       6.04420006E-02  -0.00000000       172.679108       1.52716243    
  -1.90116501      0.120823003      -0.00000000       172.679108       1.52716243    
  -1.89637399     -0.181081995      -0.00000000       172.480209       1.52713645    
  -1.90116501     -0.120823003      -0.00000000       172.480209       1.52713645    
   0.00000000       0.00000000       0.00000000       172.480209       1.52713645    
  -1.88967395     -0.241159007      -0.00000000       172.480209       1.52713645    
  -1.85819399     -0.419692010      -0.00000000       171.659332       1.52702653    
  -1.87057400     -0.360523999      -0.00000000       171.659332       1.52702653    
   0.00000000       0.00000000       0.00000000       171.659332       1.52702653    
  -1.84394205     -0.478437006      -0.00000000       171.659332       1.52702653    
   0.00000000       0.00000000       0.00000000       172.088943       1.52711582    
  -1.87057400     -0.360523999      -0.00000000       172.088943       1.52711582    
  -1.88107097     -0.300992996      -0.00000000       172.088943       1.52711582    
  -1.88967395     -0.241159007      -0.00000000       172.088943       1.52711582    
  -1.82783401     -0.536701024      -0.00000000       171.258804       1.52683139    
  -1.84394205     -0.478437006      -0.00000000       171.258804       1.52683139    
   0.00000000       0.00000000       0.00000000       171.258804       1.52683139    
  -1.80988598     -0.594424009      -0.00000000       171.258804       1.52683139    
  -1.74518704     -0.763773024      -0.00000000       171.296875       1.52577507    
  -1.76854098     -0.708016992      -0.00000000       171.296875       1.52577507    
   0.00000000       0.00000000       0.00000000       171.296875       1.52577507    
  -1.72007501     -0.818759024      -0.00000000       171.296875       1.52577507    
   0.00000000       0.00000000       0.00000000       171.059769       1.52644801    
  -1.76854098     -0.708016992      -0.00000000       171.059769       1.52644801    
  -1.79011405     -0.651548028      -0.00000000       171.059769       1.52644801    
  -1.80988598     -0.594424009      -0.00000000       171.059769       1.52644801    
  -1.69323206     -0.872922003      -0.00000000       171.966034       1.52479362    
  -1.72007501     -0.818759024      -0.00000000       171.966034       1.52479362    
   0.00000000       0.00000000       0.00000000       171.966034       1.52479362    
  -1.66468298     -0.926204979      -0.00000000       171.966034       1.52479362    
  -1.56910396      -1.08024895      -0.00000000       174.462372       1.52186430    
  -1.60258806      -1.02992105      -0.00000000       174.462372       1.52186430    
   0.00000000       0.00000000       0.00000000       174.462372       1.52186430    
  -1.53403997      -1.12949002      -0.00000000       174.462372       1.52186430    
   0.00000000       0.00000000       0.00000000       173.086670       1.52347207    
  -1.60258806      -1.02992105      -0.00000000       173.086670       1.52347207    
  -1.63445795     -0.978555024      -0.00000000       173.086670       1.52347207    
  -1.66468298     -0.926204979      -0.00000000       173.086670       1.52347207    
  -1.49743104      -1.17759299      -0.00000000       175.831161       1.52003336    
  -1.53403997      -1.12949002      -0.00000000       175.831161       1.52003336    
   0.00000000       0.00000000       0.00000000       175.831161       1.52003336    
  -1.45931494      -1.22450995      -0.00000000       175.831161       1.52003336    
  -1.33631003      -1.35768199      -0.00000000       172.442413       1.51747072    
  -1.37871301      -1.31459999      -0.00000000       172.442413       1.51747072    
   0.00000000       0.00000000       0.00000000       172.442413       1.51747072    
  -1.29255998      -1.39939702      -0.00000000       172.442413       1.51747072    
   0.00000000       0.00000000       0.00000000       176.230240       1.51825225    
  -1.37871301      -1.31459999      -0.00000000       176.230240       1.51825225    
  -1.41972899      -1.27019501      -0.00000000       176.230240       1.51825225    
  -1.45931494      -1.22450995      -0.00000000       176.230240       1.51825225    
  -1.24750996      -1.43970299      -0.00000000       160.463165       1.51910579    
  -1.29255998      -1.39939702      -0.00000000       160.463165       1.51910579    
   0.00000000       0.00000000       0.00000000       160.463165       1.51910579    
  -1.20120299      -1.47855902      -0.00000000       160.463165       1.51910579    
  -1.05521798      -1.58604598      -0.00000000       127.690430       1.52594352    
  -1.10500801      -1.55176699      -0.00000000       127.690430       1.52594352    
   0.00000000       0.00000000       0.00000000       127.690430       1.52594352    
  -1.00436401      -1.61872697      -0.00000000       127.690430       1.52594352    
   0.00000000       0.00000000       0.00000000       144.364273       1.52225733    
  -1.10500801      -1.55176699      -0.00000000       144.364273       1.52225733    
  -1.15368605      -1.51592600      -0.00000000       144.364273       1.52225733    
  -1.20120299      -1.47855902      -0.00000000       144.364273       1.52225733    
 -0.952499986      -1.64977801      -0.00000000       111.359009       1.52983725    
  -1.00436401      -1.61872697      -0.00000000       111.359009       1.52983725    
   0.00000000       0.00000000       0.00000000       111.359009       1.52983725    
 -0.899676025      -1.67916906      -0.00000000       111.359009       1.52983725    
 -0.735987008      -1.75708497      -0.00000000       80.6651306       1.53746235    
 -0.791365981      -1.73284900      -0.00000000       80.6651306       1.53746235    
   0.00000000       0.00000000       0.00000000       80.6651306       1.53746235    
 -0.679867983      -1.77955198      -0.00000000       80.6651306       1.53746235    
   0.00000000       0.00000000       0.00000000       95.6264877       1.53377056    
 -0.791365981      -1.73284900      -0.00000000       95.6264877       1.53377056    
 -0.845947027      -1.70686805      -0.00000000       95.6264877       1.53377056    
 -0.899676025      -1.67916906      -0.00000000       95.6264877       1.53377056    
 -0.623063982      -1.80022705      -0.00000000       66.4070740       1.54057693    
 -0.679867983      -1.77955198      -0.00000000       66.4070740       1.54057693    
   0.00000000       0.00000000       0.00000000       66.4070740       1.54057693    
 -0.565632999      -1.81908906      -0.00000000       66.4070740       1.54057693    
 -0.390157014      -1.86461902      -0.00000000       39.4909630       1.54338276    
 -0.449120998      -1.85130095      -0.00000000       39.4909630       1.54338276    
   0.00000000       0.00000000       0.00000000       39.4909630       1.54338276    
 -0.330799997      -1.87605906      -0.00000000       39.4909630       1.54338276    
   0.00000000       0.00000000       0.00000000       52.7414703       1.54277635    
 -0.449120998      -1.85130095      -0.00000000       52.7414703       1.54277635    
 -0.507632971      -1.83611906      -0.00000000       52.7414703       1.54277635    
 -0.565632999      -1.81908906      -0.00000000       52.7414703       1.54277635    
 -0.271109998      -1.88560998      -0.00000000       26.5648708       1.54029596    
 -0.330799997      -1.87605906      -0.00000000       26.5648708       1.54029596    
   0.00000000       0.00000000       0.00000000       26.5648708       1.54029596    
 -0.211146995      -1.89326203      -0.00000000       26.5648708       1.54029596    
  -3.02249994E-02  -1.90476000      -0.00000000       1.31132030       1.10516703    
  -9.06440020E-02  -1.90284204      -0.00000000       1.31132030       1.10516703    
   0.00000000       0.00000000       0.00000000       1.31132030       1.10516703    
   3.02249994E-02  -1.90476000      -0.00000000       1.31132030       1.10516703    
   0.00000000       0.00000000       0.00000000       13.8534231       1.52392101    
  -9.06440020E-02  -1.90284204      -0.00000000       13.8534231       1.52392101    
 -0.150970995      -1.89900804      -0.00000000       13.8534231       1.52392101    
 -0.211146995      -1.89326203      -0.00000000       13.8534231       1.52392101    
   9.06440020E-02  -1.90284204      -0.00000000       11.5270500      -1.51670647    
   3.02249994E-02  -1.90476000      -0.00000000       11.5270500      -1.51670647    
   0.00000000       0.00000000       0.00000000       11.5270500      -1.51670647    
  0.150970995      -1.89900804      -0.00000000       11.5270500      -1.51670647    
  0.330799997      -1.87605906      -0.00000000       37.0053444      -1.54395843    
  0.271109998      -1.88560998      -0.00000000       37.0053444      -1.54395843    
   0.00000000       0.00000000       0.00000000       37.0053444      -1.54395843    
  0.390157014      -1.86461902      -0.00000000       37.0053444      -1.54395843    
   0.00000000       0.00000000       0.00000000       24.2001686      -1.53953278    
  0.271109998      -1.88560998      -0.00000000       24.2001686      -1.53953278    
  0.211146995      -1.89326203      -0.00000000       24.2001686      -1.53953278    
  0.150970995      -1.89900804      -0.00000000       24.2001686      -1.53953278    
  0.449120998      -1.85130095      -0.00000000       50.0994377      -1.54391146    
  0.390157014      -1.86461902      -0.00000000       50.0994377      -1.54391146    
   0.00000000       0.00000000       0.00000000       50.0994377      -1.54391146    
  0.507632971      -1.83611906      -0.00000000       50.0994377      -1.54391146    
  0.679867983      -1.77955198      -0.00000000       77.3919830      -1.53925717    
  0.623063982      -1.80022705      -0.00000000       77.3919830      -1.53925717    
   0.00000000       0.00000000       0.00000000       77.3919830      -1.53925717    
  0.735987008      -1.75708497      -0.00000000       77.3919830      -1.53925717    
   0.00000000       0.00000000       0.00000000       63.5172043      -1.54207718    
  0.623063982      -1.80022705      -0.00000000       63.5172043      -1.54207718    
  0.565632999      -1.81908906      -0.00000000       63.5172043      -1.54207718    
  0.507632971      -1.83611906      -0.00000000       63.5172043      -1.54207718    
  0.791365981      -1.73284900      -0.00000000       91.8942184      -1.53577113    
  0.735987008      -1.75708497      -0.00000000       91.8942184      -1.53577113    
   0.00000000       0.00000000       0.00000000       91.8942184      -1.53577113    
  0.845947027      -1.70686805      -0.00000000       91.8942184      -1.53577113    
   1.00436401      -1.61872697      -0.00000000       122.853142      -1.52813482    
  0.952499986      -1.64977801      -0.00000000       122.853142      -1.52813482    
   0.00000000       0.00000000       0.00000000       122.853142      -1.52813482    
   1.05521798      -1.58604598      -0.00000000       122.853142      -1.52813482    
   0.00000000       0.00000000       0.00000000       107.036537      -1.53199816    
  0.952499986      -1.64977801      -0.00000000       107.036537      -1.53199816    
  0.899676025      -1.67916906      -0.00000000       107.036537      -1.53199816    
  0.845947027      -1.70686805      -0.00000000       107.036537      -1.53199816    
   1.10500801      -1.55176699      -0.00000000       139.126343      -1.52439725    
   1.05521798      -1.58604598      -0.00000000       139.126343      -1.52439725    
   0.00000000       0.00000000       0.00000000       139.126343      -1.52439725    
   1.15368605      -1.51592600      -0.00000000       139.126343      -1.52439725    
   1.29255998      -1.39939702      -0.00000000       171.151398      -1.51797760    
   1.24750996      -1.43970299      -0.00000000       171.151398      -1.51797760    
   0.00000000       0.00000000       0.00000000       171.151398      -1.51797760    
   1.33631003      -1.35768199      -0.00000000       171.151398      -1.51797760    
   0.00000000       0.00000000       0.00000000       155.557571      -1.52091455    
   1.24750996      -1.43970299      -0.00000000       155.557571      -1.52091455    
   1.20120299      -1.47855902      -0.00000000       155.557571      -1.52091455    