 VARIABLES="X" "Y" "Z" "abs(p) (Pa)" "angle(p) (rad)"
ZONE N=    802,E =     800, F=FEPOINT, ET=QUADRILATERAL
   1.90499997       0.00000000      -0.00000000      0.665165603       1.63771856    
   1.90404105      -6.04420006E-02  -0.00000000      0.665165603       1.63771856    
   0.00000000       0.00000000       0.00000000      0.665165603       1.63771856    
   1.90404105       6.04420006E-02  -0.00000000      0.665165603       1.63771856    
   1.88967395      0.241159007      -0.00000000      0.669404447       1.63729298    
   1.89637399      0.181081995      -0.00000000      0.669404447       1.63729298    
   0.00000000       0.00000000       0.00000000      0.669404447       1.63729298    
   1.88107097      0.300992996      -0.00000000      0.669404447       1.63729298    
   0.00000000       0.00000000       0.00000000      0.666402042       1.63759398    
   1.89637399      0.181081995      -0.00000000      0.666402042       1.63759398    
   1.90116501      0.120823003      -0.00000000      0.666402042       1.63759398    
   1.90404105       6.04420006E-02  -0.00000000      0.666402042       1.63759398    
   1.87057400      0.360523999      -0.00000000      0.674649775       1.63677371    
   1.88107097      0.300992996      -0.00000000      0.674649775       1.63677371    
   0.00000000       0.00000000       0.00000000      0.674649775       1.63677371    
   1.85819399      0.419692010      -0.00000000      0.674649775       1.63677371    
   1.80988598      0.594424009      -0.00000000      0.694938064       1.63483906    
   1.82783401      0.536701024      -0.00000000      0.694938064       1.63483906    
   0.00000000       0.00000000       0.00000000      0.694938064       1.63483906    
   1.79011405      0.651548028      -0.00000000      0.694938064       1.63483906    
   0.00000000       0.00000000       0.00000000      0.683019221       1.63596165    
   1.82783401      0.536701024      -0.00000000      0.683019221       1.63596165    
   1.84394205      0.478437006      -0.00000000      0.683019221       1.63596165    
   1.85819399      0.419692010      -0.00000000      0.683019221       1.63596165    
   1.76854098      0.708016992      -0.00000000      0.711003482       1.63338554    
   1.79011405      0.651548028      -0.00000000      0.711003482       1.63338554    
   0.00000000       0.00000000       0.00000000      0.711003482       1.63338554    
   1.74518704      0.763773024      -0.00000000      0.711003482       1.63338554    
   1.66468298      0.926204979      -0.00000000      0.755797625       1.62965882    
   1.69323206      0.872922003      -0.00000000      0.755797625       1.62965882    
   0.00000000       0.00000000       0.00000000      0.755797625       1.62965882    
   1.63445795      0.978555024      -0.00000000      0.755797625       1.62965882    
   0.00000000       0.00000000       0.00000000      0.731563628       1.63161850    
   1.69323206      0.872922003      -0.00000000      0.731563628       1.63161850    
   1.72007501      0.818759024      -0.00000000      0.731563628       1.63161850    
   1.74518704      0.763773024      -0.00000000      0.731563628       1.63161850    
   1.60258806       1.02992105      -0.00000000      0.782508790       1.62763858    
   1.63445795      0.978555024      -0.00000000      0.782508790       1.62763858    
   0.00000000       0.00000000       0.00000000      0.782508790       1.62763858    
   1.56910396       1.08024895      -0.00000000      0.782508790       1.62763858    
   1.45931494       1.22450995      -0.00000000      0.834239483       1.62409008    
   1.49743104       1.17759299      -0.00000000      0.834239483       1.62409008    
   0.00000000       0.00000000       0.00000000      0.834239483       1.62409008    
   1.41972899       1.27019501      -0.00000000      0.834239483       1.62409008    
   0.00000000       0.00000000       0.00000000      0.809805334       1.62571061    
   1.49743104       1.17759299      -0.00000000      0.809805334       1.62571061    
   1.53403997       1.12949002      -0.00000000      0.809805334       1.62571061    
   1.56910396       1.08024895      -0.00000000      0.809805334       1.62571061    
   1.37871301       1.31459999      -0.00000000      0.845492005       1.62337410    
   1.41972899       1.27019501      -0.00000000      0.845492005       1.62337410    
   0.00000000       0.00000000       0.00000000      0.845492005       1.62337410    
   1.33631003       1.35768199      -0.00000000      0.845492005       1.62337410    
   1.20120299       1.47855902      -0.00000000      0.803014457       1.62617624    
   1.24750996       1.43970299      -0.00000000      0.803014457       1.62617624    
   0.00000000       0.00000000       0.00000000      0.803014457       1.62617624    
   1.15368605       1.51592600      -0.00000000      0.803014457       1.62617624    
   0.00000000       0.00000000       0.00000000      0.830840886       1.62430847    
   1.24750996       1.43970299      -0.00000000      0.830840886       1.62430847    
   1.29255998       1.39939702      -0.00000000      0.830840886       1.62430847    
   1.33631003       1.35768199      -0.00000000      0.830840886       1.62430847    
   1.10500801       1.55176699      -0.00000000      0.773344696       1.62831426    
   1.15368605       1.51592600      -0.00000000      0.773344696       1.62831426    
   0.00000000       0.00000000       0.00000000      0.773344696       1.62831426    
   1.05521798       1.58604598      -0.00000000      0.773344696       1.62831426    
  0.899676025       1.67916906      -0.00000000      0.720969677       1.63251531    
  0.952499986       1.64977801      -0.00000000      0.720969677       1.63251531    
   0.00000000       0.00000000       0.00000000      0.720969677       1.63251531    
  0.845947027       1.70686805      -0.00000000      0.720969677       1.63251531    
   0.00000000       0.00000000       0.00000000      0.745444834       1.63047886    
  0.952499986       1.64977801      -0.00000000      0.745444834       1.63047886    
   1.00436401       1.61872697      -0.00000000      0.745444834       1.63047886    
   1.05521798       1.58604598      -0.00000000      0.745444834       1.63047886    
  0.791365981       1.73284900      -0.00000000      0.701103926       1.63427246    
  0.845947027       1.70686805      -0.00000000      0.701103926       1.63427246    
   0.00000000       0.00000000       0.00000000      0.701103926       1.63427246    
  0.735987008       1.75708497      -0.00000000      0.701103926       1.63427246    
  0.565632999       1.81908906      -0.00000000      0.674104631       1.63682663    
  0.623063982       1.80022705      -0.00000000      0.674104631       1.63682663    
   0.00000000       0.00000000       0.00000000      0.674104631       1.63682663    
  0.507632971       1.83611906      -0.00000000      0.674104631       1.63682663    
   0.00000000       0.00000000       0.00000000      0.685602129       1.63571429    
  0.623063982       1.80022705      -0.00000000      0.685602129       1.63571429    
  0.679867983       1.77955198      -0.00000000      0.685602129       1.63571429    
  0.735987008       1.75708497      -0.00000000      0.685602129       1.63571429    
  0.449120998       1.85130095      -0.00000000      0.666205108       1.63761330    
  0.507632971       1.83611906      -0.00000000      0.666205108       1.63761330    
   0.00000000       0.00000000       0.00000000      0.666205108       1.63761330    
  0.390157014       1.86461902      -0.00000000      0.666205108       1.63761330    
  0.211146995       1.89326203      -0.00000000      0.657936513       1.63845706    
  0.271109998       1.88560998      -0.00000000      0.657936513       1.63845706    
   0.00000000       0.00000000       0.00000000      0.657936513       1.63845706    
  0.150970995       1.89900804      -0.00000000      0.657936513       1.63845706    
   0.00000000       0.00000000       0.00000000      0.661092281       1.63813245    
  0.271109998       1.88560998      -0.00000000      0.661092281       1.63813245    
  0.330799997       1.87605906      -0.00000000      0.661092281       1.63813245    
  0.390157014       1.86461902      -0.00000000      0.661092281       1.63813245    
   9.06440020E-02   1.90284204      -0.00000000      0.656336069       1.63862288    
  0.150970995       1.89900804      -0.00000000      0.656336069       1.63862288    
   0.00000000       0.00000000       0.00000000      0.656336069       1.63862288    
   3.02249994E-02   1.90476000      -0.00000000      0.656336069       1.63862288    
 -0.150970995       1.89900804      -0.00000000      0.658469617       1.63840210    
  -9.06440020E-02   1.90284204      -0.00000000      0.658469617       1.63840210    
   0.00000000       0.00000000       0.00000000      0.658469617       1.63840210    
 -0.211146995       1.89326203      -0.00000000      0.658469617       1.63840210    
   0.00000000       0.00000000       0.00000000      0.656612277       1.63859427    
  -9.06440020E-02   1.90284204      -0.00000000      0.656612277       1.63859427    
  -3.02249994E-02   1.90476000      -0.00000000      0.656612277       1.63859427    
   3.02249994E-02   1.90476000      -0.00000000      0.656612277       1.63859427    
 -0.271109998       1.88560998      -0.00000000      0.661985219       1.63804138    
 -0.211146995       1.89326203      -0.00000000      0.661985219       1.63804138    
   0.00000000       0.00000000       0.00000000      0.661985219       1.63804138    
 -0.330799997       1.87605906      -0.00000000      0.661985219       1.63804138    
 -0.507632971       1.83611906      -0.00000000      0.676871538       1.63655579    
 -0.449120998       1.85130095      -0.00000000      0.676871538       1.63655579    
   0.00000000       0.00000000       0.00000000      0.676871538       1.63655579    
 -0.565632999       1.81908906      -0.00000000      0.676871538       1.63655579    
   0.00000000       0.00000000       0.00000000      0.667789996       1.63745415    
 -0.449120998       1.85130095      -0.00000000      0.667789996       1.63745415    
 -0.390157014       1.86461902      -0.00000000      0.667789996       1.63745415    
 -0.330799997       1.87605906      -0.00000000      0.667789996       1.63745415    
 -0.623063982       1.80022705      -0.00000000      0.689521253       1.63534403    
 -0.565632999       1.81908906      -0.00000000      0.689521253       1.63534403    
   0.00000000       0.00000000       0.00000000      0.689521253       1.63534403    
 -0.679867983       1.77955198      -0.00000000      0.689521253       1.63534403    
 -0.845947027       1.70686805      -0.00000000      0.727260351       1.63197958    
 -0.791365981       1.73284900      -0.00000000      0.727260351       1.63197958    
   0.00000000       0.00000000       0.00000000      0.727260351       1.63197958    
 -0.899676025       1.67916906      -0.00000000      0.727260351       1.63197958    
   0.00000000       0.00000000       0.00000000      0.706195951       1.63381314    
 -0.791365981       1.73284900      -0.00000000      0.706195951       1.63381314    
 -0.735987008       1.75708497      -0.00000000      0.706195951       1.63381314    
 -0.679867983       1.77955198      -0.00000000      0.706195951       1.63381314    
 -0.952499986       1.64977801      -0.00000000      0.751941979       1.62996161    
 -0.899676025       1.67916906      -0.00000000      0.751941979       1.62996161    
   0.00000000       0.00000000       0.00000000      0.751941979       1.62996161    
  -1.00436401       1.61872697      -0.00000000      0.751941979       1.62996161    
  -1.15368605       1.51592600      -0.00000000      0.806667984       1.62592471    
  -1.10500801       1.55176699      -0.00000000      0.806667984       1.62592471    
   0.00000000       0.00000000       0.00000000      0.806667984       1.62592471    
  -1.20120299       1.47855902      -0.00000000      0.806667984       1.62592471    
   0.00000000       0.00000000       0.00000000      0.779005408       1.62789500    
  -1.10500801       1.55176699      -0.00000000      0.779005408       1.62789500    
  -1.05521798       1.58604598      -0.00000000      0.779005408       1.62789500    
  -1.00436401       1.61872697      -0.00000000      0.779005408       1.62789500    
  -1.24750996       1.43970299      -0.00000000      0.831424654       1.62427092    
  -1.20120299       1.47855902      -0.00000000      0.831424654       1.62427092    
   0.00000000       0.00000000       0.00000000      0.831424654       1.62427092    
  -1.29255998       1.39939702      -0.00000000      0.831424654       1.62427092    
  -1.41972899       1.27019501      -0.00000000      0.828365624       1.62446868    
  -1.37871301       1.31459999      -0.00000000      0.828365624       1.62446868    
   0.00000000       0.00000000       0.00000000      0.828365624       1.62446868    
  -1.45931494       1.22450995      -0.00000000      0.828365624       1.62446868    
   0.00000000       0.00000000       0.00000000      0.842852712       1.62353921    
  -1.37871301       1.31459999      -0.00000000      0.842852712       1.62353921    
  -1.33631003       1.35768199      -0.00000000      0.842852712       1.62353921    
  -1.29255998       1.39939702      -0.00000000      0.842852712       1.62353921    
  -1.49743104       1.17759299      -0.00000000      0.800778091       1.62633133    
  -1.45931494       1.22450995      -0.00000000      0.800778091       1.62633133    
   0.00000000       0.00000000       0.00000000      0.800778091       1.62633133    
  -1.53403997       1.12949002      -0.00000000      0.800778091       1.62633133    
  -1.63445795      0.978555024      -0.00000000      0.743661880       1.63062227    
  -1.60258806       1.02992105      -0.00000000      0.743661880       1.63062227    
   0.00000000       0.00000000       0.00000000      0.743661880       1.63062227    
  -1.66468298      0.926204979      -0.00000000      0.743661880       1.63062227    
   0.00000000       0.00000000       0.00000000      0.771354735       1.62846303    
  -1.60258806       1.02992105      -0.00000000      0.771354735       1.62846303    
  -1.56910396       1.08024895      -0.00000000      0.771354735       1.62846303    
  -1.53403997       1.12949002      -0.00000000      0.771354735       1.62846303    
  -1.69323206      0.872922003      -0.00000000      0.719370782       1.63265276    
  -1.66468298      0.926204979      -0.00000000      0.719370782       1.63265276    
   0.00000000       0.00000000       0.00000000      0.719370782       1.63265276    
  -1.72007501      0.818759024      -0.00000000      0.719370782       1.63265276    
  -1.79011405      0.651548028      -0.00000000      0.684304237       1.63583767    
  -1.76854098      0.708016992      -0.00000000      0.684304237       1.63583767    
   0.00000000       0.00000000       0.00000000      0.684304237       1.63583767    
  -1.80988598      0.594424009      -0.00000000      0.684304237       1.63583767    
   0.00000000       0.00000000       0.00000000      0.699659169       1.63440371    
  -1.76854098      0.708016992      -0.00000000      0.699659169       1.63440371    
  -1.74518704      0.763773024      -0.00000000      0.699659169       1.63440371    
  -1.72007501      0.818759024      -0.00000000      0.699659169       1.63440371    
  -1.82783401      0.536701024      -0.00000000      0.672975957       1.63693762    
  -1.80988598      0.594424009      -0.00000000      0.672975957       1.63693762    
   0.00000000       0.00000000       0.00000000      0.672975957       1.63693762    
  -1.84394205      0.478437006      -0.00000000      0.672975957       1.63693762    
  -1.88107097      0.300992996      -0.00000000      0.660167098       1.63822711    
  -1.87057400      0.360523999      -0.00000000      0.660167098       1.63822711    
   0.00000000       0.00000000       0.00000000      0.660167098       1.63822711    
  -1.88967395      0.241159007      -0.00000000      0.660167098       1.63822711    
   0.00000000       0.00000000       0.00000000      0.665195286       1.63771498    
  -1.87057400      0.360523999      -0.00000000      0.665195286       1.63771498    
  -1.85819399      0.419692010      -0.00000000      0.665195286       1.63771498    
  -1.84394205      0.478437006      -0.00000000      0.665195286       1.63771498    
  -1.89637399      0.181081995      -0.00000000      0.657079816       1.63854551    
  -1.88967395      0.241159007      -0.00000000      0.657079816       1.63854551    
   0.00000000       0.00000000       0.00000000      0.657079816       1.63854551    
  -1.90116501      0.120823003      -0.00000000      0.657079816       1.63854551    
  -1.90404105      -6.04420006E-02  -0.00000000      0.655879378       1.63867021    
  -1.90499997       0.00000000      -0.00000000      0.655879378       1.63867021    
   0.00000000       0.00000000       0.00000000      0.655879378       1.63867021    
  -1.90116501     -0.120823003      -0.00000000      0.655879378       1.63867021    
   0.00000000       0.00000000       0.00000000      0.655540764       1.63870537    
  -1.90499997       0.00000000      -0.00000000      0.655540764       1.63870537    
  -1.90404105       6.04420006E-02  -0.00000000      0.655540764       1.63870537    
  -1.90116501      0.120823003      -0.00000000      0.655540764       1.63870537    
  -1.89637399     -0.181081995      -0.00000000      0.657797754       1.63847136    
  -1.90116501     -0.120823003      -0.00000000      0.657797754       1.63847136    
   0.00000000       0.00000000       0.00000000      0.657797754       1.63847136    
  -1.88967395     -0.241159007      -0.00000000      0.657797754       1.63847136    
  -1.85819399     -0.419692010      -0.00000000      0.667265952       1.63750660    
  -1.87057400     -0.360523999      -0.00000000      0.667265952       1.63750660    
   0.00000000       0.00000000       0.00000000      0.667265952       1.63750660    
  -1.84394205     -0.478437006      -0.00000000      0.667265952       1.63750660    
   0.00000000       0.00000000       0.00000000      0.661380172       1.63810313    
  -1.87057400     -0.360523999      -0.00000000      0.661380172       1.63810313    
  -1.88107097     -0.300992996      -0.00000000      0.661380172       1.63810313    
  -1.88967395     -0.241159007      -0.00000000      0.661380172       1.63810313    
  -1.82783401     -0.536701024      -0.00000000      0.676431894       1.63659859    
  -1.84394205     -0.478437006      -0.00000000      0.676431894       1.63659859    
   0.00000000       0.00000000       0.00000000      0.676431894       1.63659859    
  -1.80988598     -0.594424009      -0.00000000      0.676431894       1.63659859    
  -1.74518704     -0.763773024      -0.00000000      0.705939174       1.63383615    
  -1.76854098     -0.708016992      -0.00000000      0.705939174       1.63383615    
   0.00000000       0.00000000       0.00000000      0.705939174       1.63383615    
  -1.72007501     -0.818759024      -0.00000000      0.705939174       1.63383615    
   0.00000000       0.00000000       0.00000000      0.689170063       1.63537705    
  -1.76854098     -0.708016992      -0.00000000      0.689170063       1.63537705    
  -1.79011405     -0.651548028      -0.00000000      0.689170063       1.63537705    
  -1.80988598     -0.594424009      -0.00000000      0.689170063       1.63537705    
  -1.69323206     -0.872922003      -0.00000000      0.727106273       1.63199258    
  -1.72007501     -0.818759024      -0.00000000      0.727106273       1.63199258    
   0.00000000       0.00000000       0.00000000      0.727106273       1.63199258    
  -1.66468298     -0.926204979      -0.00000000      0.727106273       1.63199258    
  -1.56910396      -1.08024895      -0.00000000      0.779077947       1.62788963    
  -1.60258806      -1.02992105      -0.00000000      0.779077947       1.62788963    
   0.00000000       0.00000000       0.00000000      0.779077947       1.62788963    
  -1.53403997      -1.12949002      -0.00000000      0.779077947       1.62788963    
   0.00000000       0.00000000       0.00000000      0.751899362       1.62996495    
  -1.60258806      -1.02992105      -0.00000000      0.751899362       1.62996495    
  -1.63445795     -0.978555024      -0.00000000      0.751899362       1.62996495    
  -1.66468298     -0.926204979      -0.00000000      0.751899362       1.62996495    
  -1.49743104      -1.17759299      -0.00000000      0.806861758       1.62591147    
  -1.53403997      -1.12949002      -0.00000000      0.806861758       1.62591147    
   0.00000000       0.00000000       0.00000000      0.806861758       1.62591147    
  -1.45931494      -1.22450995      -0.00000000      0.806861758       1.62591147    
  -1.33631003      -1.35768199      -0.00000000      0.843162119       1.62351978    
  -1.37871301      -1.31459999      -0.00000000      0.843162119       1.62351978    
   0.00000000       0.00000000       0.00000000      0.843162119       1.62351978    
  -1.29255998      -1.39939702      -0.00000000      0.843162119       1.62351978    
   0.00000000       0.00000000       0.00000000      0.831719100       1.62425196    
  -1.37871301      -1.31459999      -0.00000000      0.831719100       1.62425196    
  -1.41972899      -1.27019501      -0.00000000      0.831719100       1.62425196    
  -1.45931494      -1.22450995      -0.00000000      0.831719100       1.62425196    
  -1.24750996      -1.43970299      -0.00000000      0.828657150       1.62444985    
  -1.29255998      -1.39939702      -0.00000000      0.828657150       1.62444985    
   0.00000000       0.00000000       0.00000000      0.828657150       1.62444985    
  -1.20120299      -1.47855902      -0.00000000      0.828657150       1.62444985    
  -1.05521798      -1.58604598      -0.00000000      0.771718979       1.62843573    
  -1.10500801      -1.55176699      -0.00000000      0.771718979       1.62843573    
   0.00000000       0.00000000       0.00000000      0.771718979       1.62843573    
  -1.00436401      -1.61872697      -0.00000000      0.771718979       1.62843573    
   0.00000000       0.00000000       0.00000000      0.801102877       1.62630868    
  -1.10500801      -1.55176699      -0.00000000      0.801102877       1.62630868    
  -1.15368605      -1.51592600      -0.00000000      0.801102877       1.62630868    
  -1.20120299      -1.47855902      -0.00000000      0.801102877       1.62630868    
 -0.952499986      -1.64977801      -0.00000000      0.744061410       1.63059008    
  -1.00436401      -1.61872697      -0.00000000      0.744061410       1.63059008    
   0.00000000       0.00000000       0.00000000      0.744061410       1.63059008    
 -0.899676025      -1.67916906      -0.00000000      0.744061410       1.63059008    
 -0.735987008      -1.75708497      -0.00000000      0.700124741       1.63436139    
 -0.791365981      -1.73284900      -0.00000000      0.700124741       1.63436139    
   0.00000000       0.00000000       0.00000000      0.700124741       1.63436139    
 -0.679867983      -1.77955198      -0.00000000      0.700124741       1.63436139    
   0.00000000       0.00000000       0.00000000      0.719806910       1.63261509    
 -0.791365981      -1.73284900      -0.00000000      0.719806910       1.63261509    
 -0.845947027      -1.70686805      -0.00000000      0.719806910       1.63261509    
 -0.899676025      -1.67916906      -0.00000000      0.719806910       1.63261509    
 -0.623063982      -1.80022705      -0.00000000      0.684797823       1.63579059    
 -0.679867983      -1.77955198      -0.00000000      0.684797823       1.63579059    
   0.00000000       0.00000000       0.00000000      0.684797823       1.63579059    
 -0.565632999      -1.81908906      -0.00000000      0.684797823       1.63579059    
 -0.390157014      -1.86461902      -0.00000000      0.665740132       1.63765991    
 -0.449120998      -1.85130095      -0.00000000      0.665740132       1.63765991    
   0.00000000       0.00000000       0.00000000      0.665740132       1.63765991    
 -0.330799997      -1.87605906      -0.00000000      0.665740132       1.63765991    
   0.00000000       0.00000000       0.00000000      0.673497975       1.63688612    
 -0.449120998      -1.85130095      -0.00000000      0.673497975       1.63688612    
 -0.507632971      -1.83611906      -0.00000000      0.673497975       1.63688612    
 -0.565632999      -1.81908906      -0.00000000      0.673497975       1.63688612    
 -0.271109998      -1.88560998      -0.00000000      0.660729885       1.63816953    
 -0.330799997      -1.87605906      -0.00000000      0.660729885       1.63816953    
   0.00000000       0.00000000       0.00000000      0.660729885       1.63816953    
 -0.211146995      -1.89326203      -0.00000000      0.660729885       1.63816953    
  -3.02249994E-02  -1.90476000      -0.00000000      0.656116068       1.63864565    
  -9.06440020E-02  -1.90284204      -0.00000000      0.656116068       1.63864565    
   0.00000000       0.00000000       0.00000000      0.656116068       1.63864565    
   3.02249994E-02  -1.90476000      -0.00000000      0.656116068       1.63864565    
   0.00000000       0.00000000       0.00000000      0.657651067       1.63848650    
  -9.06440020E-02  -1.90284204      -0.00000000      0.657651067       1.63848650    
 -0.150970995      -1.89900804      -0.00000000      0.657651067       1.63848650    
 -0.211146995      -1.89326203      -0.00000000      0.657651067       1.63848650    
   9.06440020E-02  -1.90284204      -0.00000000      0.656458378       1.63861012    
   3.02249994E-02  -1.90476000      -0.00000000      0.656458378       1.63861012    
   0.00000000       0.00000000       0.00000000      0.656458378       1.63861012    
  0.150970995      -1.89900804      -0.00000000      0.656458378       1.63861012    
  0.330799997      -1.87605906      -0.00000000      0.661981523       1.63804173    
  0.271109998      -1.88560998      -0.00000000      0.661981523       1.63804173    
   0.00000000       0.00000000       0.00000000      0.661981523       1.63804173    
  0.390157014      -1.86461902      -0.00000000      0.661981523       1.63804173    
   0.00000000       0.00000000       0.00000000      0.658383369       1.63841093    
  0.271109998      -1.88560998      -0.00000000      0.658383369       1.63841093    
  0.211146995      -1.89326203      -0.00000000      0.658383369       1.63841093    
  0.150970995      -1.89900804      -0.00000000      0.658383369       1.63841093    
  0.449120998      -1.85130095      -0.00000000      0.667901218       1.63744295    
  0.390157014      -1.86461902      -0.00000000      0.667901218       1.63744295    
   0.00000000       0.00000000       0.00000000      0.667901218       1.63744295    
  0.507632971      -1.83611906      -0.00000000      0.667901218       1.63744295    
  0.679867983      -1.77955198      -0.00000000      0.689947665       1.63530397    
  0.623063982      -1.80022705      -0.00000000      0.689947665       1.63530397    
   0.00000000       0.00000000       0.00000000      0.689947665       1.63530397    
  0.735987008      -1.75708497      -0.00000000      0.689947665       1.63530397    
   0.00000000       0.00000000       0.00000000      0.677166522       1.63652706    
  0.623063982      -1.80022705      -0.00000000      0.677166522       1.63652706    
  0.565632999      -1.81908906      -0.00000000      0.677166522       1.63652706    
  0.507632971      -1.83611906      -0.00000000      0.677166522       1.63652706    
  0.791365981      -1.73284900      -0.00000000      0.706747890       1.63376379    
  0.735987008      -1.75708497      -0.00000000      0.706747890       1.63376379    
   0.00000000       0.00000000       0.00000000      0.706747890       1.63376379    
  0.845947027      -1.70686805      -0.00000000      0.706747890       1.63376379    
   1.00436401      -1.61872697      -0.00000000      0.752766132       1.62989640    
  0.952499986      -1.64977801      -0.00000000      0.752766132       1.62989640    
   0.00000000       0.00000000       0.00000000      0.752766132       1.62989640    
   1.05521798      -1.58604598      -0.00000000      0.752766132       1.62989640    
   0.00000000       0.00000000       0.00000000      0.727939785       1.63192225    
  0.952499986      -1.64977801      -0.00000000      0.727939785       1.63192225    
  0.899676025      -1.67916906      -0.00000000      0.727939785       1.63192225    
  0.845947027      -1.70686805      -0.00000000      0.727939785       1.63192225    
   1.10500801      -1.55176699      -0.00000000      0.779996514       1.62782204    
   1.05521798      -1.58604598      -0.00000000      0.779996514       1.62782204    
   0.00000000       0.00000000       0.00000000      0.779996514       1.62782204    
   1.15368605      -1.51592600      -0.00000000      0.779996514       1.62782204    
   1.29255998      -1.39939702      -0.00000000      0.832831323       1.62418008    
   1.24750996      -1.43970299      -0.00000000      0.832831323       1.62418008    
   0.00000000       0.00000000       0.00000000      0.832831323       1.62418008    
   1.33631003      -1.35768199      -0.00000000      0.832831323       1.62418008    
   0.00000000       0.00000000       0.00000000      0.807869077       1.62584233    
   1.24750996      -1.43970299      -0.00000000      0.807869077       1.62584233    
   1.20120299      -1.47855902      -0.00000000      0.807869077       1.62584233    