 VARIABLES="X" "Y" "Z" "abs(p) (Pa)" "angle(p) (rad)"
ZONE N=    802,E =     800, F=FEPOINT, ET=QUADRILATERAL
   1.90499997       0.00000000      -0.00000000       2.10325170       1.89562440    
   1.90404105      -6.04420006E-02  -0.00000000       2.10325170       1.89562440    
   0.00000000       0.00000000       0.00000000       2.10325170       1.89562440    
   1.90404105       6.04420006E-02  -0.00000000       2.10325170       1.89562440    
   1.88967395      0.241159007      -0.00000000       2.11655283       1.89340651    
   1.89637399      0.181081995      -0.00000000       2.11655283       1.89340651    
   0.00000000       0.00000000       0.00000000       2.11655283       1.89340651    
   1.88107097      0.300992996      -0.00000000       2.11655283       1.89340651    
   0.00000000       0.00000000       0.00000000       2.10696673       1.89500511    
   1.89637399      0.181081995      -0.00000000       2.10696673       1.89500511    
   1.90116501      0.120823003      -0.00000000       2.10696673       1.89500511    
   1.90404105       6.04420006E-02  -0.00000000       2.10696673       1.89500511    
   1.87057400      0.360523999      -0.00000000       2.13381410       1.89056253    
   1.88107097      0.300992996      -0.00000000       2.13381410       1.89056253    
   0.00000000       0.00000000       0.00000000       2.13381410       1.89056253    
   1.85819399      0.419692010      -0.00000000       2.13381410       1.89056253    
   1.80988598      0.594424009      -0.00000000       2.20589352       1.87923431    
   1.82783401      0.536701024      -0.00000000       2.20589352       1.87923431    
   0.00000000       0.00000000       0.00000000       2.20589352       1.87923431    
   1.79011405      0.651548028      -0.00000000       2.20589352       1.87923431    
   0.00000000       0.00000000       0.00000000       2.16242456       1.88596773    
   1.82783401      0.536701024      -0.00000000       2.16242456       1.88596773    
   1.84394205      0.478437006      -0.00000000       2.16242456       1.88596773    
   1.85819399      0.419692010      -0.00000000       2.16242456       1.88596773    
   1.76854098      0.708016992      -0.00000000       2.26479173       1.87053633    
   1.79011405      0.651548028      -0.00000000       2.26479173       1.87053633    
   0.00000000       0.00000000       0.00000000       2.26479173       1.87053633    
   1.74518704      0.763773024      -0.00000000       2.26479173       1.87053633    
   1.66468298      0.926204979      -0.00000000       2.43489432       1.84779191    
   1.69323206      0.872922003      -0.00000000       2.43489432       1.84779191    
   0.00000000       0.00000000       0.00000000       2.43489432       1.84779191    
   1.63445795      0.978555024      -0.00000000       2.43489432       1.84779191    
   0.00000000       0.00000000       0.00000000       2.34125662       1.85990179    
   1.69323206      0.872922003      -0.00000000       2.34125662       1.85990179    
   1.72007501      0.818759024      -0.00000000       2.34125662       1.85990179    
   1.74518704      0.763773024      -0.00000000       2.34125662       1.85990179    
   1.60258806       1.02992105      -0.00000000       2.54164743       1.83504713    
   1.63445795      0.978555024      -0.00000000       2.54164743       1.83504713    
   0.00000000       0.00000000       0.00000000       2.54164743       1.83504713    
   1.56910396       1.08024895      -0.00000000       2.54164743       1.83504713    
   1.45931494       1.22450995      -0.00000000       2.75072336       1.81270397    
   1.49743104       1.17759299      -0.00000000       2.75072336       1.81270397    
   0.00000000       0.00000000       0.00000000       2.75072336       1.81270397    
   1.41972899       1.27019501      -0.00000000       2.75072336       1.81270397    
   0.00000000       0.00000000       0.00000000       2.65165448       1.82291508    
   1.49743104       1.17759299      -0.00000000       2.65165448       1.82291508    
   1.53403997       1.12949002      -0.00000000       2.65165448       1.82291508    
   1.56910396       1.08024895      -0.00000000       2.65165448       1.82291508    
   1.37871301       1.31459999      -0.00000000       2.79627538       1.80816925    
   1.41972899       1.27019501      -0.00000000       2.79627538       1.80816925    
   0.00000000       0.00000000       0.00000000       2.79627538       1.80816925    
   1.33631003       1.35768199      -0.00000000       2.79627538       1.80816925    
   1.20120299       1.47855902      -0.00000000       2.62690759       1.82539928    
   1.24750996       1.43970299      -0.00000000       2.62690759       1.82539928    
   0.00000000       0.00000000       0.00000000       2.62690759       1.82539928    
   1.15368605       1.51592600      -0.00000000       2.62690759       1.82539928    
   0.00000000       0.00000000       0.00000000       2.73841786       1.81382477    
   1.24750996       1.43970299      -0.00000000       2.73841786       1.81382477    
   1.29255998       1.39939702      -0.00000000       2.73841786       1.81382477    
   1.33631003       1.35768199      -0.00000000       2.73841786       1.81382477    
   1.10500801       1.55176699      -0.00000000       2.50806642       1.83876920    
   1.15368605       1.51592600      -0.00000000       2.50806642       1.83876920    
   0.00000000       0.00000000       0.00000000       2.50806642       1.83876920    
   1.05521798       1.58604598      -0.00000000       2.50806642       1.83876920    
  0.899676025       1.67916906      -0.00000000       2.30396819       1.86485553    
  0.952499986       1.64977801      -0.00000000       2.30396819       1.86485553    
   0.00000000       0.00000000       0.00000000       2.30396819       1.86485553    
  0.845947027       1.70686805      -0.00000000       2.30396819       1.86485553    
   0.00000000       0.00000000       0.00000000       2.39724302       1.85238457    
  0.952499986       1.64977801      -0.00000000       2.39724302       1.85238457    
   1.00436401       1.61872697      -0.00000000       2.39724302       1.85238457    
   1.05521798       1.58604598      -0.00000000       2.39724302       1.85238457    
  0.791365981       1.73284900      -0.00000000       2.22866511       1.87569475    
  0.845947027       1.70686805      -0.00000000       2.22866511       1.87569475    
   0.00000000       0.00000000       0.00000000       2.22866511       1.87569475    
  0.735987008       1.75708497      -0.00000000       2.22866511       1.87569475    
  0.565632999       1.81908906      -0.00000000       2.12984753       1.89111519    
  0.623063982       1.80022705      -0.00000000       2.12984753       1.89111519    
   0.00000000       0.00000000       0.00000000       2.12984753       1.89111519    
  0.507632971       1.83611906      -0.00000000       2.12984753       1.89111519    
   0.00000000       0.00000000       0.00000000       2.17117429       1.88448584    
  0.623063982       1.80022705      -0.00000000       2.17117429       1.88448584    
  0.679867983       1.77955198      -0.00000000       2.17117429       1.88448584    
  0.735987008       1.75708497      -0.00000000       2.17117429       1.88448584    
  0.449120998       1.85130095      -0.00000000       2.10180712       1.89577806    
  0.507632971       1.83611906      -0.00000000       2.10180712       1.89577806    
   0.00000000       0.00000000       0.00000000       2.10180712       1.89577806    
  0.390157014       1.86461902      -0.00000000       2.10180712       1.89577806    
  0.211146995       1.89326203      -0.00000000       2.07338309       1.90065944    
  0.271109998       1.88560998      -0.00000000       2.07338309       1.90065944    
   0.00000000       0.00000000       0.00000000       2.07338309       1.90065944    
  0.150970995       1.89900804      -0.00000000       2.07338309       1.90065944    
   0.00000000       0.00000000       0.00000000       2.08395457       1.89882481    
  0.271109998       1.88560998      -0.00000000       2.08395457       1.89882481    
  0.330799997       1.87605906      -0.00000000       2.08395457       1.89882481    
  0.390157014       1.86461902      -0.00000000       2.08395457       1.89882481    
   9.06440020E-02   1.90284204      -0.00000000       2.06906509       1.90141499    
  0.150970995       1.89900804      -0.00000000       2.06906509       1.90141499    
   0.00000000       0.00000000       0.00000000       2.06906509       1.90141499    
   3.02249994E-02   1.90476000      -0.00000000       2.06906509       1.90141499    
 -0.150970995       1.89900804      -0.00000000       2.07447457       1.90046465    
  -9.06440020E-02   1.90284204      -0.00000000       2.07447457       1.90046465    
   0.00000000       0.00000000       0.00000000       2.07447457       1.90046465    
 -0.211146995       1.89326203      -0.00000000       2.07447457       1.90046465    
   0.00000000       0.00000000       0.00000000       2.06919837       1.90138984    
  -9.06440020E-02   1.90284204      -0.00000000       2.06919837       1.90138984    
  -3.02249994E-02   1.90476000      -0.00000000       2.06919837       1.90138984    
   3.02249994E-02   1.90476000      -0.00000000       2.06919837       1.90138984    
 -0.271109998       1.88560998      -0.00000000       2.08627033       1.89842200    
 -0.211146995       1.89326203      -0.00000000       2.08627033       1.89842200    
   0.00000000       0.00000000       0.00000000       2.08627033       1.89842200    
 -0.330799997       1.87605906      -0.00000000       2.08627033       1.89842200    
 -0.507632971       1.83611906      -0.00000000       2.13796782       1.88979828    
 -0.449120998       1.85130095      -0.00000000       2.13796782       1.88979828    
   0.00000000       0.00000000       0.00000000       2.13796782       1.88979828    
 -0.565632999       1.81908906      -0.00000000       2.13796782       1.88979828    
   0.00000000       0.00000000       0.00000000       2.10655975       1.89497781    
 -0.449120998       1.85130095      -0.00000000       2.10655975       1.89497781    
 -0.390157014       1.86461902      -0.00000000       2.10655975       1.89497781    
 -0.330799997       1.87605906      -0.00000000       2.10655975       1.89497781    
 -0.623063982       1.80022705      -0.00000000       2.18395352       1.88251042    
 -0.565632999       1.81908906      -0.00000000       2.18395352       1.88251042    
   0.00000000       0.00000000       0.00000000       2.18395352       1.88251042    
 -0.679867983       1.77955198      -0.00000000       2.18395352       1.88251042    
 -0.845947027       1.70686805      -0.00000000       2.32384324       1.86216557    
 -0.791365981       1.73284900      -0.00000000       2.32384324       1.86216557    
   0.00000000       0.00000000       0.00000000       2.32384324       1.86216557    
 -0.899676025       1.67916906      -0.00000000       2.32384324       1.86216557    
   0.00000000       0.00000000       0.00000000       2.24526954       1.87327516    
 -0.791365981       1.73284900      -0.00000000       2.24526954       1.87327516    
 -0.735987008       1.75708497      -0.00000000       2.24526954       1.87327516    
 -0.679867983       1.77955198      -0.00000000       2.24526954       1.87327516    
 -0.952499986       1.64977801      -0.00000000       2.41963267       1.84960783    
 -0.899676025       1.67916906      -0.00000000       2.41963267       1.84960783    
   0.00000000       0.00000000       0.00000000       2.41963267       1.84960783    
  -1.00436401       1.61872697      -0.00000000       2.41963267       1.84960783    
  -1.15368605       1.51592600      -0.00000000       2.63949823       1.82411313    
  -1.10500801       1.55176699      -0.00000000       2.63949823       1.82411313    
   0.00000000       0.00000000       0.00000000       2.63949823       1.82411313    
  -1.20120299       1.47855902      -0.00000000       2.63949823       1.82411313    
   0.00000000       0.00000000       0.00000000       2.52821660       1.83649993    
  -1.10500801       1.55176699      -0.00000000       2.52821660       1.83649993    
  -1.05521798       1.58604598      -0.00000000       2.52821660       1.83649993    
  -1.00436401       1.61872697      -0.00000000       2.52821660       1.83649993    
  -1.24750996       1.43970299      -0.00000000       2.73946881       1.81372690    
  -1.20120299       1.47855902      -0.00000000       2.73946881       1.81372690    
   0.00000000       0.00000000       0.00000000       2.73946881       1.81372690    
  -1.29255998       1.39939702      -0.00000000       2.73946881       1.81372690    
  -1.41972899       1.27019501      -0.00000000       2.72837639       1.81474078    
  -1.37871301       1.31459999      -0.00000000       2.72837639       1.81474078    
   0.00000000       0.00000000       0.00000000       2.72837639       1.81474078    
  -1.45931494       1.22450995      -0.00000000       2.72837639       1.81474078    
   0.00000000       0.00000000       0.00000000       2.78560662       1.80910444    
  -1.37871301       1.31459999      -0.00000000       2.78560662       1.80910444    
  -1.33631003       1.35768199      -0.00000000       2.78560662       1.80910444    
  -1.29255998       1.39939702      -0.00000000       2.78560662       1.80910444    
  -1.49743104       1.17759299      -0.00000000       2.61774492       1.82630408    
  -1.45931494       1.22450995      -0.00000000       2.61774492       1.82630408    
   0.00000000       0.00000000       0.00000000       2.61774492       1.82630408    
  -1.53403997       1.12949002      -0.00000000       2.61774492       1.82630408    
  -1.63445795      0.978555024      -0.00000000       2.39002442       1.85323262    
  -1.60258806       1.02992105      -0.00000000       2.39002442       1.85323262    
   0.00000000       0.00000000       0.00000000       2.39002442       1.85323262    
  -1.66468298      0.926204979      -0.00000000       2.39002442       1.85323262    
   0.00000000       0.00000000       0.00000000       2.49978828       1.83966255    
  -1.60258806       1.02992105      -0.00000000       2.49978828       1.83966255    
  -1.56910396       1.08024895      -0.00000000       2.49978828       1.83966255    
  -1.53403997       1.12949002      -0.00000000       2.49978828       1.83966255    
  -1.69323206      0.872922003      -0.00000000       2.29762006       1.86565721    
  -1.66468298      0.926204979      -0.00000000       2.29762006       1.86565721    
   0.00000000       0.00000000       0.00000000       2.29762006       1.86565721    
  -1.72007501      0.818759024      -0.00000000       2.29762006       1.86565721    
  -1.79011405      0.651548028      -0.00000000       2.16595697       1.88522232    
  -1.76854098      0.708016992      -0.00000000       2.16595697       1.88522232    
   0.00000000       0.00000000       0.00000000       2.16595697       1.88522232    
  -1.80988598      0.594424009      -0.00000000       2.16595697       1.88522232    
   0.00000000       0.00000000       0.00000000       2.22294259       1.87646329    
  -1.76854098      0.708016992      -0.00000000       2.22294259       1.87646329    
  -1.74518704      0.763773024      -0.00000000       2.22294259       1.87646329    
  -1.72007501      0.818759024      -0.00000000       2.22294259       1.87646329    
  -1.82783401      0.536701024      -0.00000000       2.12506056       1.89181471    
  -1.80988598      0.594424009      -0.00000000       2.12506056       1.89181471    
   0.00000000       0.00000000       0.00000000       2.12506056       1.89181471    
  -1.84394205      0.478437006      -0.00000000       2.12506056       1.89181471    
  -1.88107097      0.300992996      -0.00000000       2.07986259       1.89944303    
  -1.87057400      0.360523999      -0.00000000       2.07986259       1.89944303    
   0.00000000       0.00000000       0.00000000       2.07986259       1.89944303    
  -1.88967395      0.241159007      -0.00000000       2.07986259       1.89944303    
   0.00000000       0.00000000       0.00000000       2.09739232       1.89643657    
  -1.87057400      0.360523999      -0.00000000       2.09739232       1.89643657    
  -1.85819399      0.419692010      -0.00000000       2.09739232       1.89643657    
  -1.84394205      0.478437006      -0.00000000       2.09739232       1.89643657    
  -1.89637399      0.181081995      -0.00000000       2.06958246       1.90123773    
  -1.88967395      0.241159007      -0.00000000       2.06958246       1.90123773    
   0.00000000       0.00000000       0.00000000       2.06958246       1.90123773    
  -1.90116501      0.120823003      -0.00000000       2.06958246       1.90123773    
  -1.90404105      -6.04420006E-02  -0.00000000       2.06586838       1.90189552    
  -1.90499997       0.00000000      -0.00000000       2.06586838       1.90189552    
   0.00000000       0.00000000       0.00000000       2.06586838       1.90189552    
  -1.90116501     -0.120823003      -0.00000000       2.06586838       1.90189552    
   0.00000000       0.00000000       0.00000000       2.06550384       1.90195894    
  -1.90499997       0.00000000      -0.00000000       2.06550384       1.90195894    
  -1.90404105       6.04420006E-02  -0.00000000       2.06550384       1.90195894    
  -1.90116501      0.120823003      -0.00000000       2.06550384       1.90195894    
  -1.89637399     -0.181081995      -0.00000000       2.07139587       1.90093064    
  -1.90116501     -0.120823003      -0.00000000       2.07139587       1.90093064    
   0.00000000       0.00000000       0.00000000       2.07139587       1.90093064    
  -1.88967395     -0.241159007      -0.00000000       2.07139587       1.90093064    
  -1.85819399     -0.419692010      -0.00000000       2.10409713       1.89533472    
  -1.87057400     -0.360523999      -0.00000000       2.10409713       1.89533472    
   0.00000000       0.00000000       0.00000000       2.10409713       1.89533472    
  -1.84394205     -0.478437006      -0.00000000       2.10409713       1.89533472    
   0.00000000       0.00000000       0.00000000       2.08348155       1.89883518    
  -1.87057400     -0.360523999      -0.00000000       2.08348155       1.89883518    
  -1.88107097     -0.300992996      -0.00000000       2.08348155       1.89883518    
  -1.88967395     -0.241159007      -0.00000000       2.08348155       1.89883518    
  -1.82783401     -0.536701024      -0.00000000       2.13585973       1.89009118    
  -1.84394205     -0.478437006      -0.00000000       2.13585973       1.89009118    
   0.00000000       0.00000000       0.00000000       2.13585973       1.89009118    
  -1.80988598     -0.594424009      -0.00000000       2.13585973       1.89009118    
  -1.74518704     -0.763773024      -0.00000000       2.24392939       1.87343681    
  -1.76854098     -0.708016992      -0.00000000       2.24392939       1.87343681    
   0.00000000       0.00000000       0.00000000       2.24392939       1.87343681    
  -1.72007501     -0.818759024      -0.00000000       2.24392939       1.87343681    
   0.00000000       0.00000000       0.00000000       2.18221807       1.88273704    
  -1.76854098     -0.708016992      -0.00000000       2.18221807       1.88273704    
  -1.79011405     -0.651548028      -0.00000000       2.18221807       1.88273704    
  -1.80988598     -0.594424009      -0.00000000       2.18221807       1.88273704    
  -1.69323206     -0.872922003      -0.00000000       2.32293606       1.86226201    
  -1.72007501     -0.818759024      -0.00000000       2.32293606       1.86226201    
   0.00000000       0.00000000       0.00000000       2.32293606       1.86226201    
  -1.66468298     -0.926204979      -0.00000000       2.32293606       1.86226201    
  -1.56910396      -1.08024895      -0.00000000       2.52829814       1.83647633    
  -1.60258806      -1.02992105      -0.00000000       2.52829814       1.83647633    
   0.00000000       0.00000000       0.00000000       2.52829814       1.83647633    
  -1.53403997      -1.12949002      -0.00000000       2.52829814       1.83647633    
   0.00000000       0.00000000       0.00000000       2.41920567       1.84964120    
  -1.60258806      -1.02992105      -0.00000000       2.41920567       1.84964120    
  -1.63445795     -0.978555024      -0.00000000       2.41920567       1.84964120    
  -1.66468298     -0.926204979      -0.00000000       2.41920567       1.84964120    
  -1.49743104      -1.17759299      -0.00000000       2.64012408       1.82404029    
  -1.53403997      -1.12949002      -0.00000000       2.64012408       1.82404029    
   0.00000000       0.00000000       0.00000000       2.64012408       1.82404029    
  -1.45931494      -1.22450995      -0.00000000       2.64012408       1.82404029    
  -1.33631003      -1.35768199      -0.00000000       2.78685665       1.80899358    
  -1.37871301      -1.31459999      -0.00000000       2.78685665       1.80899358    
   0.00000000       0.00000000       0.00000000       2.78685665       1.80899358    
  -1.29255998      -1.39939702      -0.00000000       2.78685665       1.80899358    
   0.00000000       0.00000000       0.00000000       2.74058056       1.81361830    
  -1.37871301      -1.31459999      -0.00000000       2.74058056       1.81361830    
  -1.41972899      -1.27019501      -0.00000000       2.74058056       1.81361830    
  -1.45931494      -1.22450995      -0.00000000       2.74058056       1.81361830    
  -1.24750996      -1.43970299      -0.00000000       2.72961593       1.81463122    
  -1.29255998      -1.39939702      -0.00000000       2.72961593       1.81463122    
   0.00000000       0.00000000       0.00000000       2.72961593       1.81463122    
  -1.20120299      -1.47855902      -0.00000000       2.72961593       1.81463122    
  -1.05521798      -1.58604598      -0.00000000       2.50140667       1.83949184    
  -1.10500801      -1.55176699      -0.00000000       2.50140667       1.83949184    
   0.00000000       0.00000000       0.00000000       2.50140667       1.83949184    
  -1.00436401      -1.61872697      -0.00000000       2.50140667       1.83949184    
   0.00000000       0.00000000       0.00000000       2.61917043       1.82616818    
  -1.10500801      -1.55176699      -0.00000000       2.61917043       1.82616818    
  -1.15368605      -1.51592600      -0.00000000       2.61917043       1.82616818    
  -1.20120299      -1.47855902      -0.00000000       2.61917043       1.82616818    
 -0.952499986      -1.64977801      -0.00000000       2.39181566       1.85302615    
  -1.00436401      -1.61872697      -0.00000000       2.39181566       1.85302615    
   0.00000000       0.00000000       0.00000000       2.39181566       1.85302615    
 -0.899676025      -1.67916906      -0.00000000       2.39181566       1.85302615    
 -0.735987008      -1.75708497      -0.00000000       2.22500396       1.87618792    
 -0.791365981      -1.73284900      -0.00000000       2.22500396       1.87618792    
   0.00000000       0.00000000       0.00000000       2.22500396       1.87618792    
 -0.679867983      -1.77955198      -0.00000000       2.22500396       1.87618792    
   0.00000000       0.00000000       0.00000000       2.29954910       1.86541533    
 -0.791365981      -1.73284900      -0.00000000       2.29954910       1.86541533    
 -0.845947027      -1.70686805      -0.00000000       2.29954910       1.86541533    
 -0.899676025      -1.67916906      -0.00000000       2.29954910       1.86541533    
 -0.623063982      -1.80022705      -0.00000000       2.16814899       1.88491333    
 -0.679867983      -1.77955198      -0.00000000       2.16814899       1.88491333    
   0.00000000       0.00000000       0.00000000       2.16814899       1.88491333    
 -0.565632999      -1.81908906      -0.00000000       2.16814899       1.88491333    
 -0.390157014      -1.86461902      -0.00000000       2.09982014       1.89607477    
 -0.449120998      -1.85130095      -0.00000000       2.09982014       1.89607477    
   0.00000000       0.00000000       0.00000000       2.09982014       1.89607477    
 -0.330799997      -1.87605906      -0.00000000       2.09982014       1.89607477    
   0.00000000       0.00000000       0.00000000       2.12737966       1.89147675    
 -0.449120998      -1.85130095      -0.00000000       2.12737966       1.89147675    
 -0.507632971      -1.83611906      -0.00000000       2.12737966       1.89147675    
 -0.565632999      -1.81908906      -0.00000000       2.12737966       1.89147675    
 -0.271109998      -1.88560998      -0.00000000       2.08237386       1.89906204    
 -0.330799997      -1.87605906      -0.00000000       2.08237386       1.89906204    
   0.00000000       0.00000000       0.00000000       2.08237386       1.89906204    
 -0.211146995      -1.89326203      -0.00000000       2.08237386       1.89906204    
  -3.02249994E-02  -1.90476000      -0.00000000       2.06807446       1.90156841    
  -9.06440020E-02  -1.90284204      -0.00000000       2.06807446       1.90156841    
   0.00000000       0.00000000       0.00000000       2.06807446       1.90156841    
   3.02249994E-02  -1.90476000      -0.00000000       2.06807446       1.90156841    
   0.00000000       0.00000000       0.00000000       2.07213688       1.90084922    
  -9.06440020E-02  -1.90284204      -0.00000000       2.07213688       1.90084922    
 -0.150970995      -1.89900804      -0.00000000       2.07213688       1.90084922    
 -0.211146995      -1.89326203      -0.00000000       2.07213688       1.90084922    
   9.06440020E-02  -1.90284204      -0.00000000       2.06844163       1.90150869    
   3.02249994E-02  -1.90476000      -0.00000000       2.06844163       1.90150869    
   0.00000000       0.00000000       0.00000000       2.06844163       1.90150869    
  0.150970995      -1.89900804      -0.00000000       2.06844163       1.90150869    
  0.330799997      -1.87605906      -0.00000000       2.08615947       1.89844096    
  0.271109998      -1.88560998      -0.00000000       2.08615947       1.89844096    
   0.00000000       0.00000000       0.00000000       2.08615947       1.89844096    
  0.390157014      -1.86461902      -0.00000000       2.08615947       1.89844096    
   0.00000000       0.00000000       0.00000000       2.07399797       1.90054142    
  0.271109998      -1.88560998      -0.00000000       2.07399797       1.90054142    
  0.211146995      -1.89326203      -0.00000000       2.07399797       1.90054142    
  0.150970995      -1.89900804      -0.00000000       2.07399797       1.90054142    
  0.449120998      -1.85130095      -0.00000000       2.10687041       1.89493287    
  0.390157014      -1.86461902      -0.00000000       2.10687041       1.89493287    
   0.00000000       0.00000000       0.00000000       2.10687041       1.89493287    
  0.507632971      -1.83611906      -0.00000000       2.10687041       1.89493287    
  0.679867983      -1.77955198      -0.00000000       2.18521357       1.88233066    
  0.623063982      -1.80022705      -0.00000000       2.18521357       1.88233066    
   0.00000000       0.00000000       0.00000000       2.18521357       1.88233066    
  0.735987008      -1.75708497      -0.00000000       2.18521357       1.88233066    
   0.00000000       0.00000000       0.00000000       2.13875246       1.88968205    
  0.623063982      -1.80022705      -0.00000000       2.13875246       1.88968205    
  0.565632999      -1.81908906      -0.00000000       2.13875246       1.88968205    
  0.507632971      -1.83611906      -0.00000000       2.13875246       1.88968205    
  0.791365981      -1.73284900      -0.00000000       2.24702263       1.87303698    
  0.735987008      -1.75708497      -0.00000000       2.24702263       1.87303698    
   0.00000000       0.00000000       0.00000000       2.24702263       1.87303698    
  0.845947027      -1.70686805      -0.00000000       2.24702263       1.87303698    
   1.00436401      -1.61872697      -0.00000000       2.42290759       1.84921825    
  0.952499986      -1.64977801      -0.00000000       2.42290759       1.84921825    
   0.00000000       0.00000000       0.00000000       2.42290759       1.84921825    
   1.05521798      -1.58604598      -0.00000000       2.42290759       1.84921825    
   0.00000000       0.00000000       0.00000000       2.32623935       1.86185861    
  0.952499986      -1.64977801      -0.00000000       2.32623935       1.86185861    
  0.899676025      -1.67916906      -0.00000000       2.32623935       1.86185861    
  0.845947027      -1.70686805      -0.00000000       2.32623935       1.86185861    
   1.10500801      -1.55176699      -0.00000000       2.53211641       1.83607185    
   1.05521798      -1.58604598      -0.00000000       2.53211641       1.83607185    
   0.00000000       0.00000000       0.00000000       2.53211641       1.83607185    
   1.15368605      -1.51592600      -0.00000000       2.53211641       1.83607185    
   1.29255998      -1.39939702      -0.00000000       2.74482107       1.81322026    
   1.24750996      -1.43970299      -0.00000000       2.74482107       1.81322026    
   0.00000000       0.00000000       0.00000000       2.74482107       1.81322026    
   1.33631003      -1.35768199      -0.00000000       2.74482107       1.81322026    
   0.00000000       0.00000000       0.00000000       2.64409781       1.82364643    
   1.24750996      -1.43970299      -0.00000000       2.64409781       1.82364643    
   1.20120299      -1.47855902      -0.00000000       2.64409781       1.82364643    