 VARIABLES="X" "Y" "Z" "abs(p) (Pa)" "angle(p) (rad)"
ZONE N=    802,E =     800, F=FEPOINT, ET=QUADRILATERAL
   1.90499997       0.00000000      -0.00000000       2.29936004      -1.57997477    
   1.90404105      -6.04420006E-02  -0.00000000       2.29936004      -1.57997477    
   0.00000000       0.00000000       0.00000000       2.29936004      -1.57997477    
   1.90404105       6.04420006E-02  -0.00000000       2.29936004      -1.57997477    
   1.88967395      0.241159007      -0.00000000       119.032265      -1.57096517    
   1.89637399      0.181081995      -0.00000000       119.032265      -1.57096517    
   0.00000000       0.00000000       0.00000000       119.032265      -1.57096517    
   1.88107097      0.300992996      -0.00000000       119.032265      -1.57096517    
   0.00000000       0.00000000       0.00000000       60.4510498      -1.57113624    
   1.89637399      0.181081995      -0.00000000       60.4510498      -1.57113624    
   1.90116501      0.120823003      -0.00000000       60.4510498      -1.57113624    
   1.90404105       6.04420006E-02  -0.00000000       60.4510498      -1.57113624    
   1.87057400      0.360523999      -0.00000000       178.720245      -1.57090569    
   1.88107097      0.300992996      -0.00000000       178.720245      -1.57090569    
   0.00000000       0.00000000       0.00000000       178.720245      -1.57090569    
   1.85819399      0.419692010      -0.00000000       178.720245      -1.57090569    
   1.80988598      0.594424009      -0.00000000       303.765381      -1.57085764    
   1.82783401      0.536701024      -0.00000000       303.765381      -1.57085764    
   0.00000000       0.00000000       0.00000000       303.765381      -1.57085764    
   1.79011405      0.651548028      -0.00000000       303.765381      -1.57085764    
   0.00000000       0.00000000       0.00000000       240.267960      -1.57087564    
   1.82783401      0.536701024      -0.00000000       240.267960      -1.57087564    
   1.84394205      0.478437006      -0.00000000       240.267960      -1.57087564    
   1.85819399      0.419692010      -0.00000000       240.267960      -1.57087564    
   1.76854098      0.708016992      -0.00000000       369.782013      -1.57084560    
   1.79011405      0.651548028      -0.00000000       369.782013      -1.57084560    
   0.00000000       0.00000000       0.00000000       369.782013      -1.57084560    
   1.74518704      0.763773024      -0.00000000       369.782013      -1.57084560    
   1.66468298      0.926204979      -0.00000000       510.685181      -1.57083082    
   1.69323206      0.872922003      -0.00000000       510.685181      -1.57083082    
   0.00000000       0.00000000       0.00000000       510.685181      -1.57083082    
   1.63445795      0.978555024      -0.00000000       510.685181      -1.57083082    
   0.00000000       0.00000000       0.00000000       438.889099      -1.57083702    
   1.69323206      0.872922003      -0.00000000       438.889099      -1.57083702    
   1.72007501      0.818759024      -0.00000000       438.889099      -1.57083702    
   1.74518704      0.763773024      -0.00000000       438.889099      -1.57083702    
   1.60258806       1.02992105      -0.00000000       584.264221      -1.57082617    
   1.63445795      0.978555024      -0.00000000       584.264221      -1.57082617    
   0.00000000       0.00000000       0.00000000       584.264221      -1.57082617    
   1.56910396       1.08024895      -0.00000000       584.264221      -1.57082617    
   1.45931494       1.22450995      -0.00000000       728.494812      -1.57081974    
   1.49743104       1.17759299      -0.00000000       728.494812      -1.57081974    
   0.00000000       0.00000000       0.00000000       728.494812      -1.57081974    
   1.41972899       1.27019501      -0.00000000       728.494812      -1.57081974    
   0.00000000       0.00000000       0.00000000       658.147766      -1.57082260    
   1.49743104       1.17759299      -0.00000000       658.147766      -1.57082260    
   1.53403997       1.12949002      -0.00000000       658.147766      -1.57082260    
   1.56910396       1.08024895      -0.00000000       658.147766      -1.57082260    
   1.37871301       1.31459999      -0.00000000       780.984741      -1.57081783    
   1.41972899       1.27019501      -0.00000000       780.984741      -1.57081783    
   0.00000000       0.00000000       0.00000000       780.984741      -1.57081783    
   1.33631003       1.35768199      -0.00000000       780.984741      -1.57081783    
   1.20120299       1.47855902      -0.00000000       794.358521      -1.57081556    
   1.24750996       1.43970299      -0.00000000       794.358521      -1.57081556    
   0.00000000       0.00000000       0.00000000       794.358521      -1.57081556    
   1.15368605       1.51592600      -0.00000000       794.358521      -1.57081556    
   0.00000000       0.00000000       0.00000000       796.905823      -1.57081664    
   1.24750996       1.43970299      -0.00000000       796.905823      -1.57081664    
   1.29255998       1.39939702      -0.00000000       796.905823      -1.57081664    
   1.33631003       1.35768199      -0.00000000       796.905823      -1.57081664    
   1.10500801       1.55176699      -0.00000000       788.659546      -1.57081461    
   1.15368605       1.51592600      -0.00000000       788.659546      -1.57081461    
   0.00000000       0.00000000       0.00000000       788.659546      -1.57081461    
   1.05521798       1.58604598      -0.00000000       788.659546      -1.57081461    
  0.899676025       1.67916906      -0.00000000       780.259521      -1.57081318    
  0.952499986       1.64977801      -0.00000000       780.259521      -1.57081318    
   0.00000000       0.00000000       0.00000000       780.259521      -1.57081318    
  0.845947027       1.70686805      -0.00000000       780.259521      -1.57081318    
   0.00000000       0.00000000       0.00000000       783.549438      -1.57081389    
  0.952499986       1.64977801      -0.00000000       783.549438      -1.57081389    
   1.00436401       1.61872697      -0.00000000       783.549438      -1.57081389    
   1.05521798       1.58604598      -0.00000000       783.549438      -1.57081389    
  0.791365981       1.73284900      -0.00000000       779.560059      -1.57081246    
  0.845947027       1.70686805      -0.00000000       779.560059      -1.57081246    
   0.00000000       0.00000000       0.00000000       779.560059      -1.57081246    
  0.735987008       1.75708497      -0.00000000       779.560059      -1.57081246    
  0.565632999       1.81908906      -0.00000000       783.713440      -1.57081127    
  0.623063982       1.80022705      -0.00000000       783.713440      -1.57081127    
   0.00000000       0.00000000       0.00000000       783.713440      -1.57081127    
  0.507632971       1.83611906      -0.00000000       783.713440      -1.57081127    
   0.00000000       0.00000000       0.00000000       780.904297      -1.57081187    
  0.623063982       1.80022705      -0.00000000       780.904297      -1.57081187    
  0.679867983       1.77955198      -0.00000000       780.904297      -1.57081187    
  0.735987008       1.75708497      -0.00000000       780.904297      -1.57081187    
  0.449120998       1.85130095      -0.00000000       787.338867      -1.57081091    
  0.507632971       1.83611906      -0.00000000       787.338867      -1.57081091    
   0.00000000       0.00000000       0.00000000       787.338867      -1.57081091    
  0.390157014       1.86461902      -0.00000000       787.338867      -1.57081091    
  0.211146995       1.89326203      -0.00000000       794.146973      -1.57081032    
  0.271109998       1.88560998      -0.00000000       794.146973      -1.57081032    
   0.00000000       0.00000000       0.00000000       794.146973      -1.57081032    
  0.150970995       1.89900804      -0.00000000       794.146973      -1.57081032    
   0.00000000       0.00000000       0.00000000       791.081787      -1.57081056    
  0.271109998       1.88560998      -0.00000000       791.081787      -1.57081056    
  0.330799997       1.87605906      -0.00000000       791.081787      -1.57081056    
  0.390157014       1.86461902      -0.00000000       791.081787      -1.57081056    
   9.06440020E-02   1.90284204      -0.00000000       796.134277      -1.57081020    
  0.150970995       1.89900804      -0.00000000       796.134277      -1.57081020    
   0.00000000       0.00000000       0.00000000       796.134277      -1.57081020    
   3.02249994E-02   1.90476000      -0.00000000       796.134277      -1.57081020    
 -0.150970995       1.89900804      -0.00000000       797.587219      -1.57081020    
  -9.06440020E-02   1.90284204      -0.00000000       797.587219      -1.57081020    
   0.00000000       0.00000000       0.00000000       797.587219      -1.57081020    
 -0.211146995       1.89326203      -0.00000000       797.587219      -1.57081020    
   0.00000000       0.00000000       0.00000000       797.367249      -1.57081020    
  -9.06440020E-02   1.90284204      -0.00000000       797.367249      -1.57081020    
  -3.02249994E-02   1.90476000      -0.00000000       797.367249      -1.57081020    
   3.02249994E-02   1.90476000      -0.00000000       797.367249      -1.57081020    
 -0.271109998       1.88560998      -0.00000000       796.845459      -1.57081032    
 -0.211146995       1.89326203      -0.00000000       796.845459      -1.57081032    
   0.00000000       0.00000000       0.00000000       796.845459      -1.57081032    
 -0.330799997       1.87605906      -0.00000000       796.845459      -1.57081032    
 -0.507632971       1.83611906      -0.00000000       795.288086      -1.57081103    
 -0.449120998       1.85130095      -0.00000000       795.288086      -1.57081103    
   0.00000000       0.00000000       0.00000000       795.288086      -1.57081103    
 -0.565632999       1.81908906      -0.00000000       795.288086      -1.57081103    
   0.00000000       0.00000000       0.00000000       795.753418      -1.57081068    
 -0.449120998       1.85130095      -0.00000000       795.753418      -1.57081068    
 -0.390157014       1.86461902      -0.00000000       795.753418      -1.57081068    
 -0.330799997       1.87605906      -0.00000000       795.753418      -1.57081068    
 -0.623063982       1.80022705      -0.00000000       795.664856      -1.57081151    
 -0.565632999       1.81908906      -0.00000000       795.664856      -1.57081151    
   0.00000000       0.00000000       0.00000000       795.664856      -1.57081151    
 -0.679867983       1.77955198      -0.00000000       795.664856      -1.57081151    
 -0.845947027       1.70686805      -0.00000000       801.766113      -1.57081258    
 -0.791365981       1.73284900      -0.00000000       801.766113      -1.57081258    
   0.00000000       0.00000000       0.00000000       801.766113      -1.57081258    
 -0.899676025       1.67916906      -0.00000000       801.766113      -1.57081258    
   0.00000000       0.00000000       0.00000000       797.628906      -1.57081199    
 -0.791365981       1.73284900      -0.00000000       797.628906      -1.57081199    
 -0.735987008       1.75708497      -0.00000000       797.628906      -1.57081199    
 -0.679867983       1.77955198      -0.00000000       797.628906      -1.57081199    
 -0.952499986       1.64977801      -0.00000000       807.750854      -1.57081330    
 -0.899676025       1.67916906      -0.00000000       807.750854      -1.57081330    
   0.00000000       0.00000000       0.00000000       807.750854      -1.57081330    
  -1.00436401       1.61872697      -0.00000000       807.750854      -1.57081330    
  -1.15368605       1.51592600      -0.00000000       821.327209      -1.57081485    
  -1.10500801       1.55176699      -0.00000000       821.327209      -1.57081485    
   0.00000000       0.00000000       0.00000000       821.327209      -1.57081485    
  -1.20120299       1.47855902      -0.00000000       821.327209      -1.57081485    
   0.00000000       0.00000000       0.00000000       814.736816      -1.57081401    
  -1.10500801       1.55176699      -0.00000000       814.736816      -1.57081401    
  -1.05521798       1.58604598      -0.00000000       814.736816      -1.57081401    
  -1.00436401       1.61872697      -0.00000000       814.736816      -1.57081401    
  -1.24750996       1.43970299      -0.00000000       823.757324      -1.57081580    
  -1.20120299       1.47855902      -0.00000000       823.757324      -1.57081580    
   0.00000000       0.00000000       0.00000000       823.757324      -1.57081580    
  -1.29255998       1.39939702      -0.00000000       823.757324      -1.57081580    
  -1.41972899       1.27019501      -0.00000000       753.089783      -1.57081878    
  -1.37871301       1.31459999      -0.00000000       753.089783      -1.57081878    
   0.00000000       0.00000000       0.00000000       753.089783      -1.57081878    
  -1.45931494       1.22450995      -0.00000000       753.089783      -1.57081878    
   0.00000000       0.00000000       0.00000000       807.361877      -1.57081699    
  -1.37871301       1.31459999      -0.00000000       807.361877      -1.57081699    
  -1.33631003       1.35768199      -0.00000000       807.361877      -1.57081699    
  -1.29255998       1.39939702      -0.00000000       807.361877      -1.57081699    
  -1.49743104       1.17759299      -0.00000000       679.921143      -1.57082152    
  -1.45931494       1.22450995      -0.00000000       679.921143      -1.57082152    
   0.00000000       0.00000000       0.00000000       679.921143      -1.57082152    
  -1.53403997       1.12949002      -0.00000000       679.921143      -1.57082152    
  -1.63445795      0.978555024      -0.00000000       529.248596      -1.57082903    
  -1.60258806       1.02992105      -0.00000000       529.248596      -1.57082903    
   0.00000000       0.00000000       0.00000000       529.248596      -1.57082903    
  -1.66468298      0.926204979      -0.00000000       529.248596      -1.57082903    
   0.00000000       0.00000000       0.00000000       603.905212      -1.57082474    
  -1.60258806       1.02992105      -0.00000000       603.905212      -1.57082474    
  -1.56910396       1.08024895      -0.00000000       603.905212      -1.57082474    
  -1.53403997       1.12949002      -0.00000000       603.905212      -1.57082474    
  -1.69323206      0.872922003      -0.00000000       457.351746      -1.57083488    
  -1.66468298      0.926204979      -0.00000000       457.351746      -1.57083488    
   0.00000000       0.00000000       0.00000000       457.351746      -1.57083488    
  -1.72007501      0.818759024      -0.00000000       457.351746      -1.57083488    
  -1.79011405      0.651548028      -0.00000000       323.881683      -1.57085288    
  -1.76854098      0.708016992      -0.00000000       323.881683      -1.57085288    
   0.00000000       0.00000000       0.00000000       323.881683      -1.57085288    
  -1.80988598      0.594424009      -0.00000000       323.881683      -1.57085288    
   0.00000000       0.00000000       0.00000000       389.034119      -1.57084250    
  -1.76854098      0.708016992      -0.00000000       389.034119      -1.57084250    
  -1.74518704      0.763773024      -0.00000000       389.034119      -1.57084250    
  -1.72007501      0.818759024      -0.00000000       389.034119      -1.57084250    
  -1.82783401      0.536701024      -0.00000000       261.271851      -1.57086825    
  -1.80988598      0.594424009      -0.00000000       261.271851      -1.57086825    
   0.00000000       0.00000000       0.00000000       261.271851      -1.57086825    
  -1.84394205      0.478437006      -0.00000000       261.271851      -1.57086825    
  -1.88107097      0.300992996      -0.00000000       141.698486      -1.57093573    
  -1.87057400      0.360523999      -0.00000000       141.698486      -1.57093573    
   0.00000000       0.00000000       0.00000000       141.698486      -1.57093573    
  -1.88967395      0.241159007      -0.00000000       141.698486      -1.57093573    
   0.00000000       0.00000000       0.00000000       200.683594      -1.57089233    
  -1.87057400      0.360523999      -0.00000000       200.683594      -1.57089233    
  -1.85819399      0.419692010      -0.00000000       200.683594      -1.57089233    
  -1.84394205      0.478437006      -0.00000000       200.683594      -1.57089233    
  -1.89637399      0.181081995      -0.00000000       83.5588455      -1.57103992    
  -1.88967395      0.241159007      -0.00000000       83.5588455      -1.57103992    
   0.00000000       0.00000000       0.00000000       83.5588455      -1.57103992    
  -1.90116501      0.120823003      -0.00000000       83.5588455      -1.57103992    
  -1.90404105      -6.04420006E-02  -0.00000000       31.6330299       1.57147276    
  -1.90499997       0.00000000      -0.00000000       31.6330299       1.57147276    
   0.00000000       0.00000000       0.00000000       31.6330299       1.57147276    
  -1.90116501     -0.120823003      -0.00000000       31.6330299       1.57147276    
   0.00000000       0.00000000       0.00000000       25.8662338      -1.57160378    
  -1.90499997       0.00000000      -0.00000000       25.8662338      -1.57160378    
  -1.90404105       6.04420006E-02  -0.00000000       25.8662338      -1.57160378    
  -1.90116501      0.120823003      -0.00000000       25.8662338      -1.57160378    
  -1.89637399     -0.181081995      -0.00000000       89.4002533       1.57104182    
  -1.90116501     -0.120823003      -0.00000000       89.4002533       1.57104182    
   0.00000000       0.00000000       0.00000000       89.4002533       1.57104182    
  -1.88967395     -0.241159007      -0.00000000       89.4002533       1.57104182    
  -1.85819399     -0.419692010      -0.00000000       207.189041       1.57090724    
  -1.87057400     -0.360523999      -0.00000000       207.189041       1.57090724    
   0.00000000       0.00000000       0.00000000       207.189041       1.57090724    
  -1.84394205     -0.478437006      -0.00000000       207.189041       1.57090724    
   0.00000000       0.00000000       0.00000000       147.749130       1.57094800    
  -1.87057400     -0.360523999      -0.00000000       147.749130       1.57094800    
  -1.88107097     -0.300992996      -0.00000000       147.749130       1.57094800    
  -1.88967395     -0.241159007      -0.00000000       147.749130       1.57094800    
  -1.82783401     -0.536701024      -0.00000000       268.395813       1.57088375    
  -1.84394205     -0.478437006      -0.00000000       268.395813       1.57088375    
   0.00000000       0.00000000       0.00000000       268.395813       1.57088375    
  -1.80988598     -0.594424009      -0.00000000       268.395813       1.57088375    
  -1.74518704     -0.763773024      -0.00000000       397.344452       1.57085741    
  -1.76854098     -0.708016992      -0.00000000       397.344452       1.57085741    
   0.00000000       0.00000000       0.00000000       397.344452       1.57085741    
  -1.72007501     -0.818759024      -0.00000000       397.344452       1.57085741    
   0.00000000       0.00000000       0.00000000       331.544067       1.57086837    
  -1.76854098     -0.708016992      -0.00000000       331.544067       1.57086837    
  -1.79011405     -0.651548028      -0.00000000       331.544067       1.57086837    
  -1.80988598     -0.594424009      -0.00000000       331.544067       1.57086837    
  -1.69323206     -0.872922003      -0.00000000       466.363770       1.57084906    
  -1.72007501     -0.818759024      -0.00000000       466.363770       1.57084906    
   0.00000000       0.00000000       0.00000000       466.363770       1.57084906    
  -1.66468298     -0.926204979      -0.00000000       466.363770       1.57084906    
  -1.56910396      -1.08024895      -0.00000000       611.809082       1.57083726    
  -1.60258806      -1.02992105      -0.00000000       611.809082       1.57083726    
   0.00000000       0.00000000       0.00000000       611.809082       1.57083726    
  -1.53403997      -1.12949002      -0.00000000       611.809082       1.57083726    
   0.00000000       0.00000000       0.00000000       538.138000       1.57084250    
  -1.60258806      -1.02992105      -0.00000000       538.138000       1.57084250    
  -1.63445795     -0.978555024      -0.00000000       538.138000       1.57084250    
  -1.66468298     -0.926204979      -0.00000000       538.138000       1.57084250    
  -1.49743104      -1.17759299      -0.00000000       685.761108       1.57083309    
  -1.53403997      -1.12949002      -0.00000000       685.761108       1.57083309    
   0.00000000       0.00000000       0.00000000       685.761108       1.57083309    
  -1.45931494      -1.22450995      -0.00000000       685.761108       1.57083309    
  -1.33631003      -1.35768199      -0.00000000       807.717224       1.57082796    
  -1.37871301      -1.31459999      -0.00000000       807.717224       1.57082796    
   0.00000000       0.00000000       0.00000000       807.717224       1.57082796    
  -1.29255998      -1.39939702      -0.00000000       807.717224       1.57082796    
   0.00000000       0.00000000       0.00000000       756.022644       1.57082975    
  -1.37871301      -1.31459999      -0.00000000       756.022644       1.57082975    
  -1.41972899      -1.27019501      -0.00000000       756.022644       1.57082975    
  -1.45931494      -1.22450995      -0.00000000       756.022644       1.57082975    
  -1.24750996      -1.43970299      -0.00000000       821.698547       1.57082820    
  -1.29255998      -1.39939702      -0.00000000       821.698547       1.57082820    
   0.00000000       0.00000000       0.00000000       821.698547       1.57082820    
  -1.20120299      -1.47855902      -0.00000000       821.698547       1.57082820    
  -1.05521798      -1.58604598      -0.00000000       808.773071       1.57083082    
  -1.10500801      -1.55176699      -0.00000000       808.773071       1.57083082    
   0.00000000       0.00000000       0.00000000       808.773071       1.57083082    
  -1.00436401      -1.61872697      -0.00000000       808.773071       1.57083082    
   0.00000000       0.00000000       0.00000000       816.848999       1.57082939    
  -1.10500801      -1.55176699      -0.00000000       816.848999       1.57082939    
  -1.15368605      -1.51592600      -0.00000000       816.848999       1.57082939    
  -1.20120299      -1.47855902      -0.00000000       816.848999       1.57082939    
 -0.952499986      -1.64977801      -0.00000000       801.315491       1.57083201    
  -1.00436401      -1.61872697      -0.00000000       801.315491       1.57083201    
   0.00000000       0.00000000       0.00000000       801.315491       1.57083201    
 -0.899676025      -1.67916906      -0.00000000       801.315491       1.57083201    
 -0.735987008      -1.75708497      -0.00000000       792.872375       1.57083392    
 -0.791365981      -1.73284900      -0.00000000       792.872375       1.57083392    
   0.00000000       0.00000000       0.00000000       792.872375       1.57083392    
 -0.679867983      -1.77955198      -0.00000000       792.872375       1.57083392    
   0.00000000       0.00000000       0.00000000       795.754150       1.57083309    
 -0.791365981      -1.73284900      -0.00000000       795.754150       1.57083309    
 -0.845947027      -1.70686805      -0.00000000       795.754150       1.57083309    
 -0.899676025      -1.67916906      -0.00000000       795.754150       1.57083309    
 -0.623063982      -1.80022705      -0.00000000       792.109253       1.57083440    
 -0.679867983      -1.77955198      -0.00000000       792.109253       1.57083440    
   0.00000000       0.00000000       0.00000000       792.109253       1.57083440    
 -0.565632999      -1.81908906      -0.00000000       792.109253       1.57083440    
 -0.390157014      -1.86461902      -0.00000000       794.501831       1.57083511    
 -0.449120998      -1.85130095      -0.00000000       794.501831       1.57083511    
   0.00000000       0.00000000       0.00000000       794.501831       1.57083511    
 -0.330799997      -1.87605906      -0.00000000       794.501831       1.57083511    
   0.00000000       0.00000000       0.00000000       792.851990       1.57083488    
 -0.449120998      -1.85130095      -0.00000000       792.851990       1.57083488    
 -0.507632971      -1.83611906      -0.00000000       792.851990       1.57083488    
 -0.565632999      -1.81908906      -0.00000000       792.851990       1.57083488    
 -0.271109998      -1.88560998      -0.00000000       796.318420       1.57083523    
 -0.330799997      -1.87605906      -0.00000000       796.318420       1.57083523    
   0.00000000       0.00000000       0.00000000       796.318420       1.57083523    
 -0.211146995      -1.89326203      -0.00000000       796.318420       1.57083523    
  -3.02249994E-02  -1.90476000      -0.00000000       797.578491       1.57083547    
  -9.06440020E-02  -1.90284204      -0.00000000       797.578491       1.57083547    
   0.00000000       0.00000000       0.00000000       797.578491       1.57083547    
   3.02249994E-02  -1.90476000      -0.00000000       797.578491       1.57083547    
   0.00000000       0.00000000       0.00000000       797.482483       1.57083535    
  -9.06440020E-02  -1.90284204      -0.00000000       797.482483       1.57083535    
 -0.150970995      -1.89900804      -0.00000000       797.482483       1.57083535    
 -0.211146995      -1.89326203      -0.00000000       797.482483       1.57083535    
   9.06440020E-02  -1.90284204      -0.00000000       796.918762       1.57083547    
   3.02249994E-02  -1.90476000      -0.00000000       796.918762       1.57083547    
   0.00000000       0.00000000       0.00000000       796.918762       1.57083547    
  0.150970995      -1.89900804      -0.00000000       796.918762       1.57083547    
  0.330799997      -1.87605906      -0.00000000       792.615479       1.57083547    
  0.271109998      -1.88560998      -0.00000000       792.615479       1.57083547    
   0.00000000       0.00000000       0.00000000       792.615479       1.57083547    
  0.390157014      -1.86461902      -0.00000000       792.615479       1.57083547    
   0.00000000       0.00000000       0.00000000       795.253906       1.57083547    
  0.271109998      -1.88560998      -0.00000000       795.253906       1.57083547    
  0.211146995      -1.89326203      -0.00000000       795.253906       1.57083547    
  0.150970995      -1.89900804      -0.00000000       795.253906       1.57083547    
  0.449120998      -1.85130095      -0.00000000       789.606506       1.57083523    
  0.390157014      -1.86461902      -0.00000000       789.606506       1.57083523    
   0.00000000       0.00000000       0.00000000       789.606506       1.57083523    
  0.507632971      -1.83611906      -0.00000000       789.606506       1.57083523    
  0.679867983      -1.77955198      -0.00000000       785.485413       1.57083464    
  0.623063982      -1.80022705      -0.00000000       785.485413       1.57083464    
   0.00000000       0.00000000       0.00000000       785.485413       1.57083464    
  0.735987008      -1.75708497      -0.00000000       785.485413       1.57083464    
   0.00000000       0.00000000       0.00000000       787.125977       1.57083499    
  0.623063982      -1.80022705      -0.00000000       787.125977       1.57083499    
  0.565632999      -1.81908906      -0.00000000       787.125977       1.57083499    
  0.507632971      -1.83611906      -0.00000000       787.125977       1.57083499    
  0.791365981      -1.73284900      -0.00000000       785.371521       1.57083392    
  0.735987008      -1.75708497      -0.00000000       785.371521       1.57083392    
   0.00000000       0.00000000       0.00000000       785.371521       1.57083392    
  0.845947027      -1.70686805      -0.00000000       785.371521       1.57083392    
   1.00436401      -1.61872697      -0.00000000       791.093994       1.57083225    
  0.952499986      -1.64977801      -0.00000000       791.093994       1.57083225    
   0.00000000       0.00000000       0.00000000       791.093994       1.57083225    
   1.05521798      -1.58604598      -0.00000000       791.093994       1.57083225    
   0.00000000       0.00000000       0.00000000       787.344421       1.57083321    
  0.952499986      -1.64977801      -0.00000000       787.344421       1.57083321    
  0.899676025      -1.67916906      -0.00000000       787.344421       1.57083321    
  0.845947027      -1.70686805      -0.00000000       787.344421       1.57083321    
   1.10500801      -1.55176699      -0.00000000       795.798706       1.57083106    
   1.05521798      -1.58604598      -0.00000000       795.798706       1.57083106    
   0.00000000       0.00000000       0.00000000       795.798706       1.57083106    
   1.15368605      -1.51592600      -0.00000000       795.798706       1.57083106    
   1.29255998      -1.39939702      -0.00000000       800.346985       1.57082891    
   1.24750996      -1.43970299      -0.00000000       800.346985       1.57082891    
   0.00000000       0.00000000       0.00000000       800.346985       1.57082891    
   1.33631003      -1.35768199      -0.00000000       800.346985       1.57082891    
   0.00000000       0.00000000       0.00000000       800.108154       1.57082999    
   1.24750996      -1.43970299      -0.00000000       800.108154       1.57082999    
   1.20120299      -1.47855902      -0.00000000       800.108154       1.57082999    