 VARIABLES="X" "Y" "Z" "abs(p) (Pa)" "angle(p) (rad)"
ZONE N=    802,E =     800, F=FEPOINT, ET=QUADRILATERAL
   1.90499997       0.00000000      -0.00000000       711.744263     -0.739671767    
   1.90404105      -6.04420006E-02  -0.00000000       711.744263     -0.739671767    
   0.00000000       0.00000000       0.00000000       711.744263     -0.739671767    
   1.90404105       6.04420006E-02  -0.00000000       711.744263     -0.739671767    
   1.88967395      0.241159007      -0.00000000       710.295044     -0.739230275    
   1.89637399      0.181081995      -0.00000000       710.295044     -0.739230275    
   0.00000000       0.00000000       0.00000000       710.295044     -0.739230275    
   1.88107097      0.300992996      -0.00000000       710.295044     -0.739230275    
   0.00000000       0.00000000       0.00000000       711.229675     -0.739426792    
   1.89637399      0.181081995      -0.00000000       711.229675     -0.739426792    
   1.90116501      0.120823003      -0.00000000       711.229675     -0.739426792    
   1.90404105       6.04420006E-02  -0.00000000       711.229675     -0.739426792    
   1.87057400      0.360523999      -0.00000000       709.655273     -0.739505351    
   1.88107097      0.300992996      -0.00000000       709.655273     -0.739505351    
   0.00000000       0.00000000       0.00000000       709.655273     -0.739505351    
   1.85819399      0.419692010      -0.00000000       709.655273     -0.739505351    
   1.80988598      0.594424009      -0.00000000       711.666077     -0.742681205    
   1.82783401      0.536701024      -0.00000000       711.666077     -0.742681205    
   0.00000000       0.00000000       0.00000000       711.666077     -0.742681205    
   1.79011405      0.651548028      -0.00000000       711.666077     -0.742681205    
   0.00000000       0.00000000       0.00000000       709.757996     -0.740462959    
   1.82783401      0.536701024      -0.00000000       709.757996     -0.740462959    
   1.84394205      0.478437006      -0.00000000       709.757996     -0.740462959    
   1.85819399      0.419692010      -0.00000000       709.757996     -0.740462959    
   1.76854098      0.708016992      -0.00000000       716.767334     -0.746885240    
   1.79011405      0.651548028      -0.00000000       716.767334     -0.746885240    
   0.00000000       0.00000000       0.00000000       716.767334     -0.746885240    
   1.74518704      0.763773024      -0.00000000       716.767334     -0.746885240    
   1.66468298      0.926204979      -0.00000000       738.269714     -0.761347711    
   1.69323206      0.872922003      -0.00000000       738.269714     -0.761347711    
   0.00000000       0.00000000       0.00000000       738.269714     -0.761347711    
   1.63445795      0.978555024      -0.00000000       738.269714     -0.761347711    
   0.00000000       0.00000000       0.00000000       725.531189     -0.753146529    
   1.69323206      0.872922003      -0.00000000       725.531189     -0.753146529    
   1.72007501      0.818759024      -0.00000000       725.531189     -0.753146529    
   1.74518704      0.763773024      -0.00000000       725.531189     -0.753146529    
   1.60258806       1.02992105      -0.00000000       753.896851     -0.770563781    
   1.63445795      0.978555024      -0.00000000       753.896851     -0.770563781    
   0.00000000       0.00000000       0.00000000       753.896851     -0.770563781    
   1.56910396       1.08024895      -0.00000000       753.896851     -0.770563781    
   1.45931494       1.22450995      -0.00000000       783.693298     -0.785809278    
   1.49743104       1.17759299      -0.00000000       783.693298     -0.785809278    
   0.00000000       0.00000000       0.00000000       783.693298     -0.785809278    
   1.41972899       1.27019501      -0.00000000       783.693298     -0.785809278    
   0.00000000       0.00000000       0.00000000       770.808594     -0.779666424    
   1.49743104       1.17759299      -0.00000000       770.808594     -0.779666424    
   1.53403997       1.12949002      -0.00000000       770.808594     -0.779666424    
   1.56910396       1.08024895      -0.00000000       770.808594     -0.779666424    
   1.37871301       1.31459999      -0.00000000       776.642090     -0.780757904    
   1.41972899       1.27019501      -0.00000000       776.642090     -0.780757904    
   0.00000000       0.00000000       0.00000000       776.642090     -0.780757904    
   1.33631003       1.35768199      -0.00000000       776.642090     -0.780757904    
   1.20120299       1.47855902      -0.00000000       665.689575     -0.704506516    
   1.24750996       1.43970299      -0.00000000       665.689575     -0.704506516    
   0.00000000       0.00000000       0.00000000       665.689575     -0.704506516    
   1.15368605       1.51592600      -0.00000000       665.689575     -0.704506516    
   0.00000000       0.00000000       0.00000000       730.517944     -0.752205789    
   1.24750996       1.43970299      -0.00000000       730.517944     -0.752205789    
   1.29255998       1.39939702      -0.00000000       730.517944     -0.752205789    
   1.33631003       1.35768199      -0.00000000       730.517944     -0.752205789    
   1.10500801       1.55176699      -0.00000000       600.663513     -0.643110394    
   1.15368605       1.51592600      -0.00000000       600.663513     -0.643110394    
   0.00000000       0.00000000       0.00000000       600.663513     -0.643110394    
   1.05521798       1.58604598      -0.00000000       600.663513     -0.643110394    
  0.899676025       1.67916906      -0.00000000       489.876343     -0.479822546    
  0.952499986       1.64977801      -0.00000000       489.876343     -0.479822546    
   0.00000000       0.00000000       0.00000000       489.876343     -0.479822546    
  0.845947027       1.70686805      -0.00000000       489.876343     -0.479822546    
   0.00000000       0.00000000       0.00000000       541.311035     -0.568432391    
  0.952499986       1.64977801      -0.00000000       541.311035     -0.568432391    
   1.00436401       1.61872697      -0.00000000       541.311035     -0.568432391    
   1.05521798       1.58604598      -0.00000000       541.311035     -0.568432391    
  0.791365981       1.73284900      -0.00000000       447.901672     -0.377769262    
  0.845947027       1.70686805      -0.00000000       447.901672     -0.377769262    
   0.00000000       0.00000000       0.00000000       447.901672     -0.377769262    
  0.735987008       1.75708497      -0.00000000       447.901672     -0.377769262    
  0.565632999       1.81908906      -0.00000000       393.422668     -0.136923835    
  0.623063982       1.80022705      -0.00000000       393.422668     -0.136923835    
   0.00000000       0.00000000       0.00000000       393.422668     -0.136923835    
  0.507632971       1.83611906      -0.00000000       393.422668     -0.136923835    
   0.00000000       0.00000000       0.00000000       415.780548     -0.262803197    
  0.623063982       1.80022705      -0.00000000       415.780548     -0.262803197    
  0.679867983       1.77955198      -0.00000000       415.780548     -0.262803197    
  0.735987008       1.75708497      -0.00000000       415.780548     -0.262803197    
  0.449120998       1.85130095      -0.00000000       380.573059      -3.03729856E-03
  0.507632971       1.83611906      -0.00000000       380.573059      -3.03729856E-03
   0.00000000       0.00000000       0.00000000       380.573059      -3.03729856E-03
  0.390157014       1.86461902      -0.00000000       380.573059      -3.03729856E-03
  0.211146995       1.89326203      -0.00000000       382.473541      0.266792119    
  0.271109998       1.88560998      -0.00000000       382.473541      0.266792119    
   0.00000000       0.00000000       0.00000000       382.473541      0.266792119    
  0.150970995       1.89900804      -0.00000000       382.473541      0.266792119    
   0.00000000       0.00000000       0.00000000       377.084625      0.133507192    
  0.271109998       1.88560998      -0.00000000       377.084625      0.133507192    
  0.330799997       1.87605906      -0.00000000       377.084625      0.133507192    
  0.390157014       1.86461902      -0.00000000       377.084625      0.133507192    
   9.06440020E-02   1.90284204      -0.00000000       396.036987      0.392356604    
  0.150970995       1.89900804      -0.00000000       396.036987      0.392356604    
   0.00000000       0.00000000       0.00000000       396.036987      0.392356604    
   3.02249994E-02   1.90476000      -0.00000000       396.036987      0.392356604    
 -0.150970995       1.89900804      -0.00000000       443.752533      0.604818404    
  -9.06440020E-02   1.90284204      -0.00000000       443.752533      0.604818404    
   0.00000000       0.00000000       0.00000000       443.752533      0.604818404    
 -0.211146995       1.89326203      -0.00000000       443.752533      0.604818404    
   0.00000000       0.00000000       0.00000000       416.840027      0.505991817    
  -9.06440020E-02   1.90284204      -0.00000000       416.840027      0.505991817    
  -3.02249994E-02   1.90476000      -0.00000000       416.840027      0.505991817    
   3.02249994E-02   1.90476000      -0.00000000       416.840027      0.505991817    
 -0.271109998       1.88560998      -0.00000000       475.995941      0.689230502    
 -0.211146995       1.89326203      -0.00000000       475.995941      0.689230502    
   0.00000000       0.00000000       0.00000000       475.995941      0.689230502    
 -0.330799997       1.87605906      -0.00000000       475.995941      0.689230502    
 -0.507632971       1.83611906      -0.00000000       555.365601      0.819703698    
 -0.449120998       1.85130095      -0.00000000       555.365601      0.819703698    
   0.00000000       0.00000000       0.00000000       555.365601      0.819703698    
 -0.565632999       1.81908906      -0.00000000       555.365601      0.819703698    
   0.00000000       0.00000000       0.00000000       513.348755      0.760489702    
 -0.449120998       1.85130095      -0.00000000       513.348755      0.760489702    
 -0.390157014       1.86461902      -0.00000000       513.348755      0.760489702    
 -0.330799997       1.87605906      -0.00000000       513.348755      0.760489702    
 -0.623063982       1.80022705      -0.00000000       602.242798      0.868423462    
 -0.565632999       1.81908906      -0.00000000       602.242798      0.868423462    
   0.00000000       0.00000000       0.00000000       602.242798      0.868423462    
 -0.679867983       1.77955198      -0.00000000       602.242798      0.868423462    
 -0.845947027       1.70686805      -0.00000000       712.509216      0.940153182    
 -0.791365981       1.73284900      -0.00000000       712.509216      0.940153182    
   0.00000000       0.00000000       0.00000000       712.509216      0.940153182    
 -0.899676025       1.67916906      -0.00000000       712.509216      0.940153182    
   0.00000000       0.00000000       0.00000000       654.658752      0.908134937    
 -0.791365981       1.73284900      -0.00000000       654.658752      0.908134937    
 -0.735987008       1.75708497      -0.00000000       654.658752      0.908134937    
 -0.679867983       1.77955198      -0.00000000       654.658752      0.908134937    
 -0.952499986       1.64977801      -0.00000000       775.857849      0.965758264    
 -0.899676025       1.67916906      -0.00000000       775.857849      0.965758264    
   0.00000000       0.00000000       0.00000000       775.857849      0.965758264    
  -1.00436401       1.61872697      -0.00000000       775.857849      0.965758264    
  -1.15368605       1.51592600      -0.00000000       912.891846       1.00147641    
  -1.10500801       1.55176699      -0.00000000       912.891846       1.00147641    
   0.00000000       0.00000000       0.00000000       912.891846       1.00147641    
  -1.20120299       1.47855902      -0.00000000       912.891846       1.00147641    
   0.00000000       0.00000000       0.00000000       843.315552      0.985907674    
  -1.10500801       1.55176699      -0.00000000       843.315552      0.985907674    
  -1.05521798       1.58604598      -0.00000000       843.315552      0.985907674    
  -1.00436401       1.61872697      -0.00000000       843.315552      0.985907674    
  -1.24750996       1.43970299      -0.00000000       978.841492       1.01323318    
  -1.20120299       1.47855902      -0.00000000       978.841492       1.01323318    
   0.00000000       0.00000000       0.00000000       978.841492       1.01323318    
  -1.29255998       1.39939702      -0.00000000       978.841492       1.01323318    
  -1.41972899       1.27019501      -0.00000000       1030.75085       1.02839625    
  -1.37871301       1.31459999      -0.00000000       1030.75085       1.02839625    
   0.00000000       0.00000000       0.00000000       1030.75085       1.02839625    
  -1.45931494       1.22450995      -0.00000000       1030.75085       1.02839625    
   0.00000000       0.00000000       0.00000000       1024.81030       1.02189875    
  -1.37871301       1.31459999      -0.00000000       1024.81030       1.02189875    
  -1.33631003       1.35768199      -0.00000000       1024.81030       1.02189875    
  -1.29255998       1.39939702      -0.00000000       1024.81030       1.02189875    
  -1.49743104       1.17759299      -0.00000000       1015.83490       1.03363109    
  -1.45931494       1.22450995      -0.00000000       1015.83490       1.03363109    
   0.00000000       0.00000000       0.00000000       1015.83490       1.03363109    
  -1.53403997       1.12949002      -0.00000000       1015.83490       1.03363109    
  -1.63445795      0.978555024      -0.00000000       981.506287       1.04156554    
  -1.60258806       1.02992105      -0.00000000       981.506287       1.04156554    
   0.00000000       0.00000000       0.00000000       981.506287       1.04156554    
  -1.66468298      0.926204979      -0.00000000       981.506287       1.04156554    
   0.00000000       0.00000000       0.00000000       997.669495       1.03796947    
  -1.60258806       1.02992105      -0.00000000       997.669495       1.03796947    
  -1.56910396       1.08024895      -0.00000000       997.669495       1.03796947    
  -1.53403997       1.12949002      -0.00000000       997.669495       1.03796947    
  -1.69323206      0.872922003      -0.00000000       968.846619       1.04452276    
  -1.66468298      0.926204979      -0.00000000       968.846619       1.04452276    
   0.00000000       0.00000000       0.00000000       968.846619       1.04452276    
  -1.72007501      0.818759024      -0.00000000       968.846619       1.04452276    
  -1.79011405      0.651548028      -0.00000000       956.410889       1.04884231    
  -1.76854098      0.708016992      -0.00000000       956.410889       1.04884231    
   0.00000000       0.00000000       0.00000000       956.410889       1.04884231    
  -1.80988598      0.594424009      -0.00000000       956.410889       1.04884231    
   0.00000000       0.00000000       0.00000000       960.574646       1.04691315    
  -1.76854098      0.708016992      -0.00000000       960.574646       1.04691315    
  -1.74518704      0.763773024      -0.00000000       960.574646       1.04691315    
  -1.72007501      0.818759024      -0.00000000       960.574646       1.04691315    
  -1.82783401      0.536701024      -0.00000000       955.209229       1.05035067    
  -1.80988598      0.594424009      -0.00000000       955.209229       1.05035067    
   0.00000000       0.00000000       0.00000000       955.209229       1.05035067    
  -1.84394205      0.478437006      -0.00000000       955.209229       1.05035067    
  -1.88107097      0.300992996      -0.00000000       956.999084       1.05229867    
  -1.87057400      0.360523999      -0.00000000       956.999084       1.05229867    
   0.00000000       0.00000000       0.00000000       956.999084       1.05229867    
  -1.88967395      0.241159007      -0.00000000       956.999084       1.05229867    
   0.00000000       0.00000000       0.00000000       955.669006       1.05148590    
  -1.87057400      0.360523999      -0.00000000       955.669006       1.05148590    
  -1.85819399      0.419692010      -0.00000000       955.669006       1.05148590    
  -1.84394205      0.478437006      -0.00000000       955.669006       1.05148590    
  -1.89637399      0.181081995      -0.00000000       958.481018       1.05283093    
  -1.88967395      0.241159007      -0.00000000       958.481018       1.05283093    
   0.00000000       0.00000000       0.00000000       958.481018       1.05283093    
  -1.90116501      0.120823003      -0.00000000       958.481018       1.05283093    
  -1.90404105      -6.04420006E-02  -0.00000000       959.428223       1.05304992    
  -1.90499997       0.00000000      -0.00000000       959.428223       1.05304992    
   0.00000000       0.00000000       0.00000000       959.428223       1.05304992    
  -1.90116501     -0.120823003      -0.00000000       959.428223       1.05304992    
   0.00000000       0.00000000       0.00000000       959.410095       1.05308306    
  -1.90499997       0.00000000      -0.00000000       959.410095       1.05308306    
  -1.90404105       6.04420006E-02  -0.00000000       959.410095       1.05308306    
  -1.90116501      0.120823003      -0.00000000       959.410095       1.05308306    
  -1.89637399     -0.181081995      -0.00000000       958.761108       1.05273652    
  -1.90116501     -0.120823003      -0.00000000       958.761108       1.05273652    
   0.00000000       0.00000000       0.00000000       958.761108       1.05273652    
  -1.88967395     -0.241159007      -0.00000000       958.761108       1.05273652    
  -1.85819399     -0.419692010      -0.00000000       957.139282       1.05133641    
  -1.87057400     -0.360523999      -0.00000000       957.139282       1.05133641    
   0.00000000       0.00000000       0.00000000       957.139282       1.05133641    
  -1.84394205     -0.478437006      -0.00000000       957.139282       1.05133641    
   0.00000000       0.00000000       0.00000000       957.728943       1.05217195    
  -1.87057400     -0.360523999      -0.00000000       957.728943       1.05217195    
  -1.88107097     -0.300992996      -0.00000000       957.728943       1.05217195    
  -1.88967395     -0.241159007      -0.00000000       957.728943       1.05217195    
  -1.82783401     -0.536701024      -0.00000000       957.496460       1.05018806    
  -1.84394205     -0.478437006      -0.00000000       957.496460       1.05018806    
   0.00000000       0.00000000       0.00000000       957.496460       1.05018806    
  -1.80988598     -0.594424009      -0.00000000       957.496460       1.05018806    
  -1.74518704     -0.763773024      -0.00000000       965.563965       1.04676890    
  -1.76854098     -0.708016992      -0.00000000       965.563965       1.04676890    
   0.00000000       0.00000000       0.00000000       965.563965       1.04676890    
  -1.72007501     -0.818759024      -0.00000000       965.563965       1.04676890    
   0.00000000       0.00000000       0.00000000       959.825317       1.04867303    
  -1.76854098     -0.708016992      -0.00000000       959.825317       1.04867303    
  -1.79011405     -0.651548028      -0.00000000       959.825317       1.04867303    
  -1.80988598     -0.594424009      -0.00000000       959.825317       1.04867303    
  -1.69323206     -0.872922003      -0.00000000       974.923096       1.04438519    
  -1.72007501     -0.818759024      -0.00000000       974.923096       1.04438519    
   0.00000000       0.00000000       0.00000000       974.923096       1.04438519    
  -1.66468298     -0.926204979      -0.00000000       974.923096       1.04438519    
  -1.56910396      -1.08024895      -0.00000000       1004.09357       1.03778315    
  -1.60258806      -1.02992105      -0.00000000       1004.09357       1.03778315    
   0.00000000       0.00000000       0.00000000       1004.09357       1.03778315    
  -1.53403997      -1.12949002      -0.00000000       1004.09357       1.03778315    
   0.00000000       0.00000000       0.00000000       988.135498       1.04141867    
  -1.60258806      -1.02992105      -0.00000000       988.135498       1.04141867    
  -1.63445795     -0.978555024      -0.00000000       988.135498       1.04141867    
  -1.66468298     -0.926204979      -0.00000000       988.135498       1.04141867    
  -1.49743104      -1.17759299      -0.00000000       1021.11414       1.03336191    
  -1.53403997      -1.12949002      -0.00000000       1021.11414       1.03336191    
   0.00000000       0.00000000       0.00000000       1021.11414       1.03336191    
  -1.45931494      -1.22450995      -0.00000000       1021.11414       1.03336191    
  -1.33631003      -1.35768199      -0.00000000       1025.42810       1.02113855    
  -1.37871301      -1.31459999      -0.00000000       1025.42810       1.02113855    
   0.00000000       0.00000000       0.00000000       1025.42810       1.02113855    
  -1.29255998      -1.39939702      -0.00000000       1025.42810       1.02113855    
   0.00000000       0.00000000       0.00000000       1033.63635       1.02795053    
  -1.37871301      -1.31459999      -0.00000000       1033.63635       1.02795053    
  -1.41972899      -1.27019501      -0.00000000       1033.63635       1.02795053    
  -1.45931494      -1.22450995      -0.00000000       1033.63635       1.02795053    
  -1.24750996      -1.43970299      -0.00000000       977.104126       1.01208425    
  -1.29255998      -1.39939702      -0.00000000       977.104126       1.01208425    
   0.00000000       0.00000000       0.00000000       977.104126       1.01208425    
  -1.20120299      -1.47855902      -0.00000000       977.104126       1.01208425    
  -1.05521798      -1.58604598      -0.00000000       837.274658      0.983778477    
  -1.10500801      -1.55176699      -0.00000000       837.274658      0.983778477    
   0.00000000       0.00000000       0.00000000       837.274658      0.983778477    
  -1.00436401      -1.61872697      -0.00000000       837.274658      0.983778477    
   0.00000000       0.00000000       0.00000000       908.423645      0.999853253    
  -1.10500801      -1.55176699      -0.00000000       908.423645      0.999853253    
  -1.15368605      -1.51592600      -0.00000000       908.423645      0.999853253    
  -1.20120299      -1.47855902      -0.00000000       908.423645      0.999853253    
 -0.952499986      -1.64977801      -0.00000000       769.142029      0.963054538    
  -1.00436401      -1.61872697      -0.00000000       769.142029      0.963054538    
   0.00000000       0.00000000       0.00000000       769.142029      0.963054538    
 -0.899676025      -1.67916906      -0.00000000       769.142029      0.963054538    
 -0.735987008      -1.75708497      -0.00000000       648.539551      0.904043138    
 -0.791365981      -1.73284900      -0.00000000       648.539551      0.904043138    
   0.00000000       0.00000000       0.00000000       648.539551      0.904043138    
 -0.679867983      -1.77955198      -0.00000000       648.539551      0.904043138    
   0.00000000       0.00000000       0.00000000       705.838379      0.936798751    
 -0.791365981      -1.73284900      -0.00000000       705.838379      0.936798751    
 -0.845947027      -1.70686805      -0.00000000       705.838379      0.936798751    
 -0.899676025      -1.67916906      -0.00000000       705.838379      0.936798751    
 -0.623063982      -1.80022705      -0.00000000       597.078491      0.863482237    
 -0.679867983      -1.77955198      -0.00000000       597.078491      0.863482237    
   0.00000000       0.00000000       0.00000000       597.078491      0.863482237    
 -0.565632999      -1.81908906      -0.00000000       597.078491      0.863482237    
 -0.390157014      -1.86461902      -0.00000000       509.571198      0.753822207    
 -0.449120998      -1.85130095      -0.00000000       509.571198      0.753822207    
   0.00000000       0.00000000       0.00000000       509.571198      0.753822207    
 -0.330799997      -1.87605906      -0.00000000       509.571198      0.753822207    
   0.00000000       0.00000000       0.00000000       550.974915      0.813937724    
 -0.449120998      -1.85130095      -0.00000000       550.974915      0.813937724    
 -0.507632971      -1.83611906      -0.00000000       550.974915      0.813937724    
 -0.565632999      -1.81908906      -0.00000000       550.974915      0.813937724    
 -0.271109998      -1.88560998      -0.00000000       472.878754      0.681689084    
 -0.330799997      -1.87605906      -0.00000000       472.878754      0.681689084    
   0.00000000       0.00000000       0.00000000       472.878754      0.681689084    
 -0.211146995      -1.89326203      -0.00000000       472.878754      0.681689084    
  -3.02249994E-02  -1.90476000      -0.00000000       414.593384      0.495857120    
  -9.06440020E-02  -1.90284204      -0.00000000       414.593384      0.495857120    
   0.00000000       0.00000000       0.00000000       414.593384      0.495857120    
   3.02249994E-02  -1.90476000      -0.00000000       414.593384      0.495857120    
   0.00000000       0.00000000       0.00000000       441.110748      0.596163630    
  -9.06440020E-02  -1.90284204      -0.00000000       441.110748      0.596163630    
 -0.150970995      -1.89900804      -0.00000000       441.110748      0.596163630    
 -0.211146995      -1.89326203      -0.00000000       441.110748      0.596163630    
   9.06440020E-02  -1.90284204      -0.00000000       394.242340      0.381049097    
   3.02249994E-02  -1.90476000      -0.00000000       394.242340      0.381049097    
   0.00000000       0.00000000       0.00000000       394.242340      0.381049097    
  0.150970995      -1.89900804      -0.00000000       394.242340      0.381049097    
  0.330799997      -1.87605906      -0.00000000       376.676086      0.120572299    
  0.271109998      -1.88560998      -0.00000000       376.676086      0.120572299    
   0.00000000       0.00000000       0.00000000       376.676086      0.120572299    
  0.390157014      -1.86461902      -0.00000000       376.676086      0.120572299    
   0.00000000       0.00000000       0.00000000       381.333710      0.254761815    
  0.271109998      -1.88560998      -0.00000000       381.333710      0.254761815    
  0.211146995      -1.89326203      -0.00000000       381.333710      0.254761815    
  0.150970995      -1.89900804      -0.00000000       381.333710      0.254761815    
  0.449120998      -1.85130095      -0.00000000       381.077057      -1.69316866E-02
  0.390157014      -1.86461902      -0.00000000       381.077057      -1.69316866E-02
   0.00000000       0.00000000       0.00000000       381.077057      -1.69316866E-02
  0.507632971      -1.83611906      -0.00000000       381.077057      -1.69316866E-02
  0.679867983      -1.77955198      -0.00000000       418.508179     -0.276565284    
  0.623063982      -1.80022705      -0.00000000       418.508179     -0.276565284    
   0.00000000       0.00000000       0.00000000       418.508179     -0.276565284    
  0.735987008      -1.75708497      -0.00000000       418.508179     -0.276565284    
   0.00000000       0.00000000       0.00000000       394.944550     -0.150941923    
  0.623063982      -1.80022705      -0.00000000       394.944550     -0.150941923    
  0.565632999      -1.81908906      -0.00000000       394.944550     -0.150941923    
  0.507632971      -1.83611906      -0.00000000       394.944550     -0.150941923    
  0.791365981      -1.73284900      -0.00000000       452.058502     -0.390802801    
  0.735987008      -1.75708497      -0.00000000       452.058502     -0.390802801    
   0.00000000       0.00000000       0.00000000       452.058502     -0.390802801    
  0.845947027      -1.70686805      -0.00000000       452.058502     -0.390802801    
   1.00436401      -1.61872697      -0.00000000       547.061401     -0.577812612    
  0.952499986      -1.64977801      -0.00000000       547.061401     -0.577812612    
   0.00000000       0.00000000       0.00000000       547.061401     -0.577812612    
   1.05521798      -1.58604598      -0.00000000       547.061401     -0.577812612    
   0.00000000       0.00000000       0.00000000       495.093750     -0.491274297    
  0.952499986      -1.64977801      -0.00000000       495.093750     -0.491274297    
  0.899676025      -1.67916906      -0.00000000       495.093750     -0.491274297    
  0.845947027      -1.70686805      -0.00000000       495.093750     -0.491274297    
   1.10500801      -1.55176699      -0.00000000       606.176941     -0.650202513    
   1.05521798      -1.58604598      -0.00000000       606.176941     -0.650202513    
   0.00000000       0.00000000       0.00000000       606.176941     -0.650202513    
   1.15368605      -1.51592600      -0.00000000       606.176941     -0.650202513    
   1.29255998      -1.39939702      -0.00000000       732.416870     -0.754768014    
   1.24750996      -1.43970299      -0.00000000       732.416870     -0.754768014    
   0.00000000       0.00000000       0.00000000       732.416870     -0.754768014    
   1.33631003      -1.35768199      -0.00000000       732.416870     -0.754768014    
   0.00000000       0.00000000       0.00000000       669.989014     -0.709298313    
   1.24750996      -1.43970299      -0.00000000       669.989014     -0.709298313    
   1.20120299      -1.47855902      -0.00000000       669.989014     -0.709298313    