 VARIABLES="X" "Y" "Z" "abs(p) (Pa)" "angle(p) (rad)"
ZONE N=    802,E =     800, F=FEPOINT, ET=QUADRILATERAL
   1.90499997       0.00000000      -0.00000000       1.23541903       1.52446067    
   1.90404105      -6.04420006E-02  -0.00000000       1.23541903       1.52446067    
   0.00000000       0.00000000       0.00000000       1.23541903       1.52446067    
   1.90404105       6.04420006E-02  -0.00000000       1.23541903       1.52446067    
   1.88967395      0.241159007      -0.00000000       66.0790558       1.58008361    
   1.89637399      0.181081995      -0.00000000       66.0790558       1.58008361    
   0.00000000       0.00000000       0.00000000       66.0790558       1.58008361    
   1.88107097      0.300992996      -0.00000000       66.0790558       1.58008361    
   0.00000000       0.00000000       0.00000000       33.6063499       1.57913959    
   1.89637399      0.181081995      -0.00000000       33.6063499       1.57913959    
   1.90116501      0.120823003      -0.00000000       33.6063499       1.57913959    
   1.90404105       6.04420006E-02  -0.00000000       33.6063499       1.57913959    
   1.87057400      0.360523999      -0.00000000       99.2139969       1.58014798    
   1.88107097      0.300992996      -0.00000000       99.2139969       1.58014798    
   0.00000000       0.00000000       0.00000000       99.2139969       1.58014798    
   1.85819399      0.419692010      -0.00000000       99.2139969       1.58014798    
   1.80988598      0.594424009      -0.00000000       168.362015       1.57949400    
   1.82783401      0.536701024      -0.00000000       168.362015       1.57949400    
   0.00000000       0.00000000       0.00000000       168.362015       1.57949400    
   1.79011405      0.651548028      -0.00000000       168.362015       1.57949400    
   0.00000000       0.00000000       0.00000000       133.223740       1.57991624    
   1.82783401      0.536701024      -0.00000000       133.223740       1.57991624    
   1.84394205      0.478437006      -0.00000000       133.223740       1.57991624    
   1.85819399      0.419692010      -0.00000000       133.223740       1.57991624    
   1.76854098      0.708016992      -0.00000000       205.137482       1.57888174    
   1.79011405      0.651548028      -0.00000000       205.137482       1.57888174    
   0.00000000       0.00000000       0.00000000       205.137482       1.57888174    
   1.74518704      0.763773024      -0.00000000       205.137482       1.57888174    
   1.66468298      0.926204979      -0.00000000       284.322296       1.57724679    
   1.69323206      0.872922003      -0.00000000       284.322296       1.57724679    
   0.00000000       0.00000000       0.00000000       284.322296       1.57724679    
   1.63445795      0.978555024      -0.00000000       284.322296       1.57724679    
   0.00000000       0.00000000       0.00000000       243.783173       1.57812190    
   1.69323206      0.872922003      -0.00000000       243.783173       1.57812190    
   1.72007501      0.818759024      -0.00000000       243.783173       1.57812190    
   1.74518704      0.763773024      -0.00000000       243.783173       1.57812190    
   1.60258806       1.02992105      -0.00000000       326.225891       1.57633460    
   1.63445795      0.978555024      -0.00000000       326.225891       1.57633460    
   0.00000000       0.00000000       0.00000000       326.225891       1.57633460    
   1.56910396       1.08024895      -0.00000000       326.225891       1.57633460    
   1.45931494       1.22450995      -0.00000000       408.704102       1.57474303    
   1.49743104       1.17759299      -0.00000000       408.704102       1.57474303    
   0.00000000       0.00000000       0.00000000       408.704102       1.57474303    
   1.41972899       1.27019501      -0.00000000       408.704102       1.57474303    
   0.00000000       0.00000000       0.00000000       368.533630       1.57544720    
   1.49743104       1.17759299      -0.00000000       368.533630       1.57544720    
   1.53403997       1.12949002      -0.00000000       368.533630       1.57544720    
   1.56910396       1.08024895      -0.00000000       368.533630       1.57544720    
   1.37871301       1.31459999      -0.00000000       438.049744       1.57474136    
   1.41972899       1.27019501      -0.00000000       438.049744       1.57474136    
   0.00000000       0.00000000       0.00000000       438.049744       1.57474136    
   1.33631003       1.35768199      -0.00000000       438.049744       1.57474136    
   1.20120299       1.47855902      -0.00000000       442.020386       1.57804787    
   1.24750996       1.43970299      -0.00000000       442.020386       1.57804787    
   0.00000000       0.00000000       0.00000000       442.020386       1.57804787    
   1.15368605       1.51592600      -0.00000000       442.020386       1.57804787    
   0.00000000       0.00000000       0.00000000       445.594391       1.57608223    
   1.24750996       1.43970299      -0.00000000       445.594391       1.57608223    
   1.29255998       1.39939702      -0.00000000       445.594391       1.57608223    
   1.33631003       1.35768199      -0.00000000       445.594391       1.57608223    
   1.10500801       1.55176699      -0.00000000       436.473450       1.58003449    
   1.15368605       1.51592600      -0.00000000       436.473450       1.58003449    
   0.00000000       0.00000000       0.00000000       436.473450       1.58003449    
   1.05521798       1.58604598      -0.00000000       436.473450       1.58003449    
  0.899676025       1.67916906      -0.00000000       428.089874       1.58343017    
  0.952499986       1.64977801      -0.00000000       428.089874       1.58343017    
   0.00000000       0.00000000       0.00000000       428.089874       1.58343017    
  0.845947027       1.70686805      -0.00000000       428.089874       1.58343017    
   0.00000000       0.00000000       0.00000000       431.566040       1.58185327    
  0.952499986       1.64977801      -0.00000000       431.566040       1.58185327    
   1.00436401       1.61872697      -0.00000000       431.566040       1.58185327    
   1.05521798       1.58604598      -0.00000000       431.566040       1.58185327    
  0.791365981       1.73284900      -0.00000000       426.534973       1.58470881    
  0.845947027       1.70686805      -0.00000000       426.534973       1.58470881    
   0.00000000       0.00000000       0.00000000       426.534973       1.58470881    
  0.735987008       1.75708497      -0.00000000       426.534973       1.58470881    
  0.565632999       1.81908906      -0.00000000       427.944092       1.58643246    
  0.623063982       1.80022705      -0.00000000       427.944092       1.58643246    
   0.00000000       0.00000000       0.00000000       427.944092       1.58643246    
  0.507632971       1.83611906      -0.00000000       427.944092       1.58643246    
   0.00000000       0.00000000       0.00000000       426.620209       1.58570278    
  0.623063982       1.80022705      -0.00000000       426.620209       1.58570278    
  0.679867983       1.77955198      -0.00000000       426.620209       1.58570278    
  0.735987008       1.75708497      -0.00000000       426.620209       1.58570278    
  0.449120998       1.85130095      -0.00000000       429.825165       1.58695245    
  0.507632971       1.83611906      -0.00000000       429.825165       1.58695245    
   0.00000000       0.00000000       0.00000000       429.825165       1.58695245    
  0.390157014       1.86461902      -0.00000000       429.825165       1.58695245    
  0.211146995       1.89326203      -0.00000000       433.703400       1.58749604    
  0.271109998       1.88560998      -0.00000000       433.703400       1.58749604    
   0.00000000       0.00000000       0.00000000       433.703400       1.58749604    
  0.150970995       1.89900804      -0.00000000       433.703400       1.58749604    
   0.00000000       0.00000000       0.00000000       431.914490       1.58729327    
  0.271109998       1.88560998      -0.00000000       431.914490       1.58729327    
  0.330799997       1.87605906      -0.00000000       431.914490       1.58729327    
  0.390157014       1.86461902      -0.00000000       431.914490       1.58729327    
   9.06440020E-02   1.90284204      -0.00000000       434.893524       1.58759260    
  0.150970995       1.89900804      -0.00000000       434.893524       1.58759260    
   0.00000000       0.00000000       0.00000000       434.893524       1.58759260    
   3.02249994E-02   1.90476000      -0.00000000       434.893524       1.58759260    
 -0.150970995       1.89900804      -0.00000000       435.546600       1.58745110    
  -9.06440020E-02   1.90284204      -0.00000000       435.546600       1.58745110    
   0.00000000       0.00000000       0.00000000       435.546600       1.58745110    
 -0.211146995       1.89326203      -0.00000000       435.546600       1.58745110    
   0.00000000       0.00000000       0.00000000       435.505920       1.58757651    
  -9.06440020E-02   1.90284204      -0.00000000       435.505920       1.58757651    
  -3.02249994E-02   1.90476000      -0.00000000       435.505920       1.58757651    
   3.02249994E-02   1.90476000      -0.00000000       435.505920       1.58757651    
 -0.271109998       1.88560998      -0.00000000       435.041107       1.58721244    
 -0.211146995       1.89326203      -0.00000000       435.041107       1.58721244    
   0.00000000       0.00000000       0.00000000       435.041107       1.58721244    
 -0.330799997       1.87605906      -0.00000000       435.041107       1.58721244    
 -0.507632971       1.83611906      -0.00000000       434.166534       1.58625460    
 -0.449120998       1.85130095      -0.00000000       434.166534       1.58625460    
   0.00000000       0.00000000       0.00000000       434.166534       1.58625460    
 -0.565632999       1.81908906      -0.00000000       434.166534       1.58625460    
   0.00000000       0.00000000       0.00000000       434.456146       1.58682442    
 -0.449120998       1.85130095      -0.00000000       434.456146       1.58682442    
 -0.390157014       1.86461902      -0.00000000       434.456146       1.58682442    
 -0.330799997       1.87605906      -0.00000000       434.456146       1.58682442    
 -0.623063982       1.80022705      -0.00000000       434.631531       1.58546913    
 -0.565632999       1.81908906      -0.00000000       434.631531       1.58546913    
   0.00000000       0.00000000       0.00000000       434.631531       1.58546913    
 -0.679867983       1.77955198      -0.00000000       434.631531       1.58546913    
 -0.845947027       1.70686805      -0.00000000       439.939972       1.58310831    
 -0.791365981       1.73284900      -0.00000000       439.939972       1.58310831    
   0.00000000       0.00000000       0.00000000       439.939972       1.58310831    
 -0.899676025       1.67916906      -0.00000000       439.939972       1.58310831    
   0.00000000       0.00000000       0.00000000       436.491089       1.58442247    
 -0.791365981       1.73284900      -0.00000000       436.491089       1.58442247    
 -0.735987008       1.75708497      -0.00000000       436.491089       1.58442247    
 -0.679867983       1.77955198      -0.00000000       436.491089       1.58442247    
 -0.952499986       1.64977801      -0.00000000       444.953247       1.58153856    
 -0.899676025       1.67916906      -0.00000000       444.953247       1.58153856    
   0.00000000       0.00000000       0.00000000       444.953247       1.58153856    
  -1.00436401       1.61872697      -0.00000000       444.953247       1.58153856    
  -1.15368605       1.51592600      -0.00000000       457.083893       1.57786858    
  -1.10500801       1.55176699      -0.00000000       457.083893       1.57786858    
   0.00000000       0.00000000       0.00000000       457.083893       1.57786858    
  -1.20120299       1.47855902      -0.00000000       457.083893       1.57786858    
   0.00000000       0.00000000       0.00000000       450.987732       1.57976687    
  -1.10500801       1.55176699      -0.00000000       450.987732       1.57976687    
  -1.05521798       1.58604598      -0.00000000       450.987732       1.57976687    
  -1.00436401       1.61872697      -0.00000000       450.987732       1.57976687    
  -1.24750996       1.43970299      -0.00000000       460.684540       1.57600772    
  -1.20120299       1.47855902      -0.00000000       460.684540       1.57600772    
   0.00000000       0.00000000       0.00000000       460.684540       1.57600772    
  -1.29255998       1.39939702      -0.00000000       460.684540       1.57600772    
  -1.41972899       1.27019501      -0.00000000       422.521729       1.57482064    
  -1.37871301       1.31459999      -0.00000000       422.521729       1.57482064    
   0.00000000       0.00000000       0.00000000       422.521729       1.57482064    
  -1.45931494       1.22450995      -0.00000000       422.521729       1.57482064    
   0.00000000       0.00000000       0.00000000       452.911987       1.57474458    
  -1.37871301       1.31459999      -0.00000000       452.911987       1.57474458    
  -1.33631003       1.35768199      -0.00000000       452.911987       1.57474458    
  -1.29255998       1.39939702      -0.00000000       452.911987       1.57474458    
  -1.49743104       1.17759299      -0.00000000       380.767639       1.57563901    
  -1.45931494       1.22450995      -0.00000000       380.767639       1.57563901    
   0.00000000       0.00000000       0.00000000       380.767639       1.57563901    
  -1.53403997       1.12949002      -0.00000000       380.767639       1.57563901    
  -1.63445795      0.978555024      -0.00000000       294.781860       1.57766473    
  -1.60258806       1.02992105      -0.00000000       294.781860       1.57766473    
   0.00000000       0.00000000       0.00000000       294.781860       1.57766473    
  -1.66468298      0.926204979      -0.00000000       294.781860       1.57766473    
   0.00000000       0.00000000       0.00000000       337.260986       1.57664502    
  -1.60258806       1.02992105      -0.00000000       337.260986       1.57664502    
  -1.56910396       1.08024895      -0.00000000       337.260986       1.57664502    
  -1.53403997       1.12949002      -0.00000000       337.260986       1.57664502    
  -1.69323206      0.872922003      -0.00000000       254.152008       1.57863033    
  -1.66468298      0.926204979      -0.00000000       254.152008       1.57863033    
   0.00000000       0.00000000       0.00000000       254.152008       1.57863033    
  -1.72007501      0.818759024      -0.00000000       254.152008       1.57863033    
  -1.79011405      0.651548028      -0.00000000       179.738907       1.58010912    
  -1.76854098      0.708016992      -0.00000000       179.738907       1.58010912    
   0.00000000       0.00000000       0.00000000       179.738907       1.58010912    
  -1.80988598      0.594424009      -0.00000000       179.738907       1.58010912    
   0.00000000       0.00000000       0.00000000       215.917923       1.57945120    
  -1.76854098      0.708016992      -0.00000000       215.917923       1.57945120    
  -1.74518704      0.763773024      -0.00000000       215.917923       1.57945120    
  -1.72007501      0.818759024      -0.00000000       215.917923       1.57945120    
  -1.82783401      0.536701024      -0.00000000       145.111542       1.58060002    
  -1.80988598      0.594424009      -0.00000000       145.111542       1.58060002    
   0.00000000       0.00000000       0.00000000       145.111542       1.58060002    
  -1.84394205      0.478437006      -0.00000000       145.111542       1.58060002    
  -1.88107097      0.300992996      -0.00000000       78.9046478       1.58109140    
  -1.87057400      0.360523999      -0.00000000       78.9046478       1.58109140    
   0.00000000       0.00000000       0.00000000       78.9046478       1.58109140    
  -1.88967395      0.241159007      -0.00000000       78.9046478       1.58109140    
   0.00000000       0.00000000       0.00000000       111.589989       1.58093679    
  -1.87057400      0.360523999      -0.00000000       111.589989       1.58093679    
  -1.85819399      0.419692010      -0.00000000       111.589989       1.58093679    
  -1.84394205      0.478437006      -0.00000000       111.589989       1.58093679    
  -1.89637399      0.181081995      -0.00000000       46.6913910       1.58097553    
  -1.88967395      0.241159007      -0.00000000       46.6913910       1.58097553    
   0.00000000       0.00000000       0.00000000       46.6913910       1.58097553    
  -1.90116501      0.120823003      -0.00000000       46.6913910       1.58097553    
  -1.90404105      -6.04420006E-02  -0.00000000       17.6048069      -1.55879974    
  -1.90499997       0.00000000      -0.00000000       17.6048069      -1.55879974    
   0.00000000       0.00000000       0.00000000       17.6048069      -1.55879974    
  -1.90116501     -0.120823003      -0.00000000       17.6048069      -1.55879974    
   0.00000000       0.00000000       0.00000000       14.5168619       1.57997525    
  -1.90499997       0.00000000      -0.00000000       14.5168619       1.57997525    
  -1.90404105       6.04420006E-02  -0.00000000       14.5168619       1.57997525    
  -1.90116501      0.120823003      -0.00000000       14.5168619       1.57997525    
  -1.89637399     -0.181081995      -0.00000000       49.7260971      -1.55965674    
  -1.90116501     -0.120823003      -0.00000000       49.7260971      -1.55965674    
   0.00000000       0.00000000       0.00000000       49.7260971      -1.55965674    
  -1.88967395     -0.241159007      -0.00000000       49.7260971      -1.55965674    
  -1.85819399     -0.419692010      -0.00000000       115.001961      -1.56033766    
  -1.87057400     -0.360523999      -0.00000000       115.001961      -1.56033766    
   0.00000000       0.00000000       0.00000000       115.001961      -1.56033766    
  -1.84394205     -0.478437006      -0.00000000       115.001961      -1.56033766    
   0.00000000       0.00000000       0.00000000       82.0273666      -1.55996013    
  -1.87057400     -0.360523999      -0.00000000       82.0273666      -1.55996013    
  -1.88107097     -0.300992996      -0.00000000       82.0273666      -1.55996013    
  -1.88967395     -0.241159007      -0.00000000       82.0273666      -1.55996013    
  -1.82783401     -0.536701024      -0.00000000       148.795349      -1.56079221    
  -1.84394205     -0.478437006      -0.00000000       148.795349      -1.56079221    
   0.00000000       0.00000000       0.00000000       148.795349      -1.56079221    
  -1.80988598     -0.594424009      -0.00000000       148.795349      -1.56079221    
  -1.74518704     -0.763773024      -0.00000000       220.226776      -1.56207442    
  -1.76854098     -0.708016992      -0.00000000       220.226776      -1.56207442    
   0.00000000       0.00000000       0.00000000       220.226776      -1.56207442    
  -1.72007501     -0.818759024      -0.00000000       220.226776      -1.56207442    
   0.00000000       0.00000000       0.00000000       183.661957      -1.56135428    
  -1.76854098     -0.708016992      -0.00000000       183.661957      -1.56135428    
  -1.79011405     -0.651548028      -0.00000000       183.661957      -1.56135428    
  -1.80988598     -0.594424009      -0.00000000       183.661957      -1.56135428    
  -1.69323206     -0.872922003      -0.00000000       258.781158      -1.56292927    
  -1.72007501     -0.818759024      -0.00000000       258.781158      -1.56292927    
   0.00000000       0.00000000       0.00000000       258.781158      -1.56292927    
  -1.66468298     -0.926204979      -0.00000000       258.781158      -1.56292927    
  -1.56910396      -1.08024895      -0.00000000       341.315735      -1.56488276    
  -1.60258806      -1.02992105      -0.00000000       341.315735      -1.56488276    
   0.00000000       0.00000000       0.00000000       341.315735      -1.56488276    
  -1.53403997      -1.12949002      -0.00000000       341.315735      -1.56488276    
   0.00000000       0.00000000       0.00000000       299.336212      -1.56389081    
  -1.60258806      -1.02992105      -0.00000000       299.336212      -1.56389081    
  -1.63445795     -0.978555024      -0.00000000       299.336212      -1.56389081    
  -1.66468298     -0.926204979      -0.00000000       299.336212      -1.56389081    
  -1.49743104      -1.17759299      -0.00000000       383.774597      -1.56584311    
  -1.53403997      -1.12949002      -0.00000000       383.774597      -1.56584311    
   0.00000000       0.00000000       0.00000000       383.774597      -1.56584311    
  -1.45931494      -1.22450995      -0.00000000       383.774597      -1.56584311    
  -1.33631003      -1.35768199      -0.00000000       452.916382      -1.56665993    
  -1.37871301      -1.31459999      -0.00000000       452.916382      -1.56665993    
   0.00000000       0.00000000       0.00000000       452.916382      -1.56665993    
  -1.29255998      -1.39939702      -0.00000000       452.916382      -1.56665993    
   0.00000000       0.00000000       0.00000000       423.996002      -1.56661248    
  -1.37871301      -1.31459999      -0.00000000       423.996002      -1.56661248    
  -1.41972899      -1.27019501      -0.00000000       423.996002      -1.56661248    
  -1.45931494      -1.22450995      -0.00000000       423.996002      -1.56661248    
  -1.24750996      -1.43970299      -0.00000000       459.381042      -1.56535101    
  -1.29255998      -1.39939702      -0.00000000       459.381042      -1.56535101    
   0.00000000       0.00000000       0.00000000       459.381042      -1.56535101    
  -1.20120299      -1.47855902      -0.00000000       459.381042      -1.56535101    
  -1.05521798      -1.58604598      -0.00000000       447.655182      -1.56144500    
  -1.10500801      -1.55176699      -0.00000000       447.655182      -1.56144500    
   0.00000000       0.00000000       0.00000000       447.655182      -1.56144500    
  -1.00436401      -1.61872697      -0.00000000       447.655182      -1.56144500    
   0.00000000       0.00000000       0.00000000       454.524109      -1.56341326    
  -1.10500801      -1.55176699      -0.00000000       454.524109      -1.56341326    
  -1.15368605      -1.51592600      -0.00000000       454.524109      -1.56341326    
  -1.20120299      -1.47855902      -0.00000000       454.524109      -1.56341326    
 -0.952499986      -1.64977801      -0.00000000       441.427551      -1.55963421    
  -1.00436401      -1.61872697      -0.00000000       441.427551      -1.55963421    
   0.00000000       0.00000000       0.00000000       441.427551      -1.55963421    
 -0.899676025      -1.67916906      -0.00000000       441.427551      -1.55963421    
 -0.735987008      -1.75708497      -0.00000000       433.895844      -1.55677152    
 -0.791365981      -1.73284900      -0.00000000       433.895844      -1.55677152    
   0.00000000       0.00000000       0.00000000       433.895844      -1.55677152    
 -0.679867983      -1.77955198      -0.00000000       433.895844      -1.55677152    
   0.00000000       0.00000000       0.00000000       436.668823      -1.55805719    
 -0.791365981      -1.73284900      -0.00000000       436.668823      -1.55805719    
 -0.845947027      -1.70686805      -0.00000000       436.668823      -1.55805719    
 -0.899676025      -1.67916906      -0.00000000       436.668823      -1.55805719    
 -0.623063982      -1.80022705      -0.00000000       432.819641      -1.55576646    
 -0.679867983      -1.77955198      -0.00000000       432.819641      -1.55576646    
   0.00000000       0.00000000       0.00000000       432.819641      -1.55576646    
 -0.565632999      -1.81908906      -0.00000000       432.819641      -1.55576646    
 -0.390157014      -1.86461902      -0.00000000       433.814087      -1.55448949    
 -0.449120998      -1.85130095      -0.00000000       433.814087      -1.55448949    
   0.00000000       0.00000000       0.00000000       433.814087      -1.55448949    
 -0.330799997      -1.87605906      -0.00000000       433.814087      -1.55448949    
   0.00000000       0.00000000       0.00000000       433.024567      -1.55502439    
 -0.449120998      -1.85130095      -0.00000000       433.024567      -1.55502439    
 -0.507632971      -1.83611906      -0.00000000       433.024567      -1.55502439    
 -0.565632999      -1.81908906      -0.00000000       433.024567      -1.55502439    
 -0.271109998      -1.88560998      -0.00000000       434.808136      -1.55413127    
 -0.330799997      -1.87605906      -0.00000000       434.808136      -1.55413127    
   0.00000000       0.00000000       0.00000000       434.808136      -1.55413127    
 -0.211146995      -1.89326203      -0.00000000       434.808136      -1.55413127    
  -3.02249994E-02  -1.90476000      -0.00000000       435.645569      -1.55379522    
  -9.06440020E-02  -1.90284204      -0.00000000       435.645569      -1.55379522    
   0.00000000       0.00000000       0.00000000       435.645569      -1.55379522    
   3.02249994E-02  -1.90476000      -0.00000000       435.645569      -1.55379522    
   0.00000000       0.00000000       0.00000000       435.524170      -1.55390942    
  -9.06440020E-02  -1.90284204      -0.00000000       435.524170      -1.55390942    
 -0.150970995      -1.89900804      -0.00000000       435.524170      -1.55390942    
 -0.211146995      -1.89326203      -0.00000000       435.524170      -1.55390942    
   9.06440020E-02  -1.90284204      -0.00000000       435.192505      -1.55379283    
   3.02249994E-02  -1.90476000      -0.00000000       435.192505      -1.55379283    
   0.00000000       0.00000000       0.00000000       435.192505      -1.55379283    
  0.150970995      -1.89900804      -0.00000000       435.192505      -1.55379283    
  0.330799997      -1.87605906      -0.00000000       432.575348      -1.55411744    
  0.271109998      -1.88560998      -0.00000000       432.575348      -1.55411744    
   0.00000000       0.00000000       0.00000000       432.575348      -1.55411744    
  0.390157014      -1.86461902      -0.00000000       432.575348      -1.55411744    
   0.00000000       0.00000000       0.00000000       434.167542      -1.55389929    
  0.271109998      -1.88560998      -0.00000000       434.167542      -1.55389929    
  0.211146995      -1.89326203      -0.00000000       434.167542      -1.55389929    
  0.150970995      -1.89900804      -0.00000000       434.167542      -1.55389929    
  0.449120998      -1.85130095      -0.00000000       430.923065      -1.55448961    
  0.390157014      -1.86461902      -0.00000000       430.923065      -1.55448961    
   0.00000000       0.00000000       0.00000000       430.923065      -1.55448961    
  0.507632971      -1.83611906      -0.00000000       430.923065      -1.55448961    
  0.679867983      -1.77955198      -0.00000000       428.915527      -1.55581748    
  0.623063982      -1.80022705      -0.00000000       428.915527      -1.55581748    
   0.00000000       0.00000000       0.00000000       428.915527      -1.55581748    
  0.735987008      -1.75708497      -0.00000000       428.915527      -1.55581748    
   0.00000000       0.00000000       0.00000000       429.553589      -1.55504465    
  0.623063982      -1.80022705      -0.00000000       429.553589      -1.55504465    
  0.565632999      -1.81908906      -0.00000000       429.553589      -1.55504465    
  0.507632971      -1.83611906      -0.00000000       429.553589      -1.55504465    
  0.791365981      -1.73284900      -0.00000000       429.625397      -1.55685830    
  0.735987008      -1.75708497      -0.00000000       429.625397      -1.55685830    
   0.00000000       0.00000000       0.00000000       429.625397      -1.55685830    
  0.845947027      -1.70686805      -0.00000000       429.625397      -1.55685830    
   1.00436401      -1.61872697      -0.00000000       435.632019      -1.55974388    
  0.952499986      -1.64977801      -0.00000000       435.632019      -1.55974388    
   0.00000000       0.00000000       0.00000000       435.632019      -1.55974388    
   1.05521798      -1.58604598      -0.00000000       435.632019      -1.55974388    
   0.00000000       0.00000000       0.00000000       431.870544      -1.55816829    
  0.952499986      -1.64977801      -0.00000000       431.870544      -1.55816829    
  0.899676025      -1.67916906      -0.00000000       431.870544      -1.55816829    
  0.845947027      -1.70686805      -0.00000000       431.870544      -1.55816829    
   1.10500801      -1.55176699      -0.00000000       440.389496      -1.56153011    
   1.05521798      -1.58604598      -0.00000000       440.389496      -1.56153011    
   0.00000000       0.00000000       0.00000000       440.389496      -1.56153011    
   1.15368605      -1.51592600      -0.00000000       440.389496      -1.56153011    
   1.29255998      -1.39939702      -0.00000000       447.606049      -1.56534445    
   1.24750996      -1.43970299      -0.00000000       447.606049      -1.56534445    
   0.00000000       0.00000000       0.00000000       447.606049      -1.56534445    
   1.33631003      -1.35768199      -0.00000000       447.606049      -1.56534445    
   0.00000000       0.00000000       0.00000000       445.223602      -1.56345487    
   1.24750996      -1.43970299      -0.00000000       445.223602      -1.56345487    
   1.20120299      -1.47855902      -0.00000000       445.223602      -1.56345487    