 VARIABLES="X" "Y" "Z" "abs(p) (Pa)" "angle(p) (rad)"
ZONE N=    802,E =     800, F=FEPOINT, ET=QUADRILATERAL
   1.90499997       0.00000000      -0.00000000       355.898438      -1.25162172    
   1.90404105      -6.04420006E-02  -0.00000000       355.898438      -1.25162172    
   0.00000000       0.00000000       0.00000000       355.898438      -1.25162172    
   1.90404105       6.04420006E-02  -0.00000000       355.898438      -1.25162172    
   1.88967395      0.241159007      -0.00000000       355.343567      -1.25139129    
   1.89637399      0.181081995      -0.00000000       355.343567      -1.25139129    
   0.00000000       0.00000000       0.00000000       355.343567      -1.25139129    
   1.88107097      0.300992996      -0.00000000       355.343567      -1.25139129    
   0.00000000       0.00000000       0.00000000       355.813110      -1.25157690    
   1.89637399      0.181081995      -0.00000000       355.813110      -1.25157690    
   1.90116501      0.120823003      -0.00000000       355.813110      -1.25157690    
   1.90404105       6.04420006E-02  -0.00000000       355.813110      -1.25157690    
   1.87057400      0.360523999      -0.00000000       354.644012      -1.25110340    
   1.88107097      0.300992996      -0.00000000       354.644012      -1.25110340    
   0.00000000       0.00000000       0.00000000       354.644012      -1.25110340    
   1.85819399      0.419692010      -0.00000000       354.644012      -1.25110340    
   1.80988598      0.594424009      -0.00000000       354.633148      -1.25081301    
   1.82783401      0.536701024      -0.00000000       354.633148      -1.25081301    
   0.00000000       0.00000000       0.00000000       354.633148      -1.25081301    
   1.79011405      0.651548028      -0.00000000       354.633148      -1.25081301    
   0.00000000       0.00000000       0.00000000       354.321411      -1.25089121    
   1.82783401      0.536701024      -0.00000000       354.321411      -1.25089121    
   1.84394205      0.478437006      -0.00000000       354.321411      -1.25089121    
   1.85819399      0.419692010      -0.00000000       354.321411      -1.25089121    
   1.76854098      0.708016992      -0.00000000       355.927246      -1.25093091    
   1.79011405      0.651548028      -0.00000000       355.927246      -1.25093091    
   0.00000000       0.00000000       0.00000000       355.927246      -1.25093091    
   1.74518704      0.763773024      -0.00000000       355.927246      -1.25093091    
   1.66468298      0.926204979      -0.00000000       362.330261      -1.25176680    
   1.69323206      0.872922003      -0.00000000       362.330261      -1.25176680    
   0.00000000       0.00000000       0.00000000       362.330261      -1.25176680    
   1.63445795      0.978555024      -0.00000000       362.330261      -1.25176680    
   0.00000000       0.00000000       0.00000000       358.489288      -1.25125825    
   1.69323206      0.872922003      -0.00000000       358.489288      -1.25125825    
   1.72007501      0.818759024      -0.00000000       358.489288      -1.25125825    
   1.74518704      0.763773024      -0.00000000       358.489288      -1.25125825    
   1.60258806       1.02992105      -0.00000000       367.009064      -1.25224316    
   1.63445795      0.978555024      -0.00000000       367.009064      -1.25224316    
   0.00000000       0.00000000       0.00000000       367.009064      -1.25224316    
   1.56910396       1.08024895      -0.00000000       367.009064      -1.25224316    
   1.45931494       1.22450995      -0.00000000       374.383453      -1.25145686    
   1.49743104       1.17759299      -0.00000000       374.383453      -1.25145686    
   0.00000000       0.00000000       0.00000000       374.383453      -1.25145686    
   1.41972899       1.27019501      -0.00000000       374.383453      -1.25145686    
   0.00000000       0.00000000       0.00000000       371.635010      -1.25234258    
   1.49743104       1.17759299      -0.00000000       371.635010      -1.25234258    
   1.53403997       1.12949002      -0.00000000       371.635010      -1.25234258    
   1.56910396       1.08024895      -0.00000000       371.635010      -1.25234258    
   1.37871301       1.31459999      -0.00000000       367.960297      -1.24724293    
   1.41972899       1.27019501      -0.00000000       367.960297      -1.24724293    
   0.00000000       0.00000000       0.00000000       367.960297      -1.24724293    
   1.33631003       1.35768199      -0.00000000       367.960297      -1.24724293    
   1.20120299       1.47855902      -0.00000000       309.279694      -1.21754420    
   1.24750996       1.43970299      -0.00000000       309.279694      -1.21754420    
   0.00000000       0.00000000       0.00000000       309.279694      -1.21754420    
   1.15368605       1.51592600      -0.00000000       309.279694      -1.21754420    
   0.00000000       0.00000000       0.00000000       343.218842      -1.23579073    
   1.24750996       1.43970299      -0.00000000       343.218842      -1.23579073    
   1.29255998       1.39939702      -0.00000000       343.218842      -1.23579073    
   1.33631003       1.35768199      -0.00000000       343.218842      -1.23579073    
   1.10500801       1.55176699      -0.00000000       274.167969      -1.19297040    
   1.15368605       1.51592600      -0.00000000       274.167969      -1.19297040    
   0.00000000       0.00000000       0.00000000       274.167969      -1.19297040    
   1.05521798       1.58604598      -0.00000000       274.167969      -1.19297040    
  0.899676025       1.67916906      -0.00000000       207.826431      -1.11782515    
  0.952499986       1.64977801      -0.00000000       207.826431      -1.11782515    
   0.00000000       0.00000000       0.00000000       207.826431      -1.11782515    
  0.845947027       1.70686805      -0.00000000       207.826431      -1.11782515    
   0.00000000       0.00000000       0.00000000       239.976242      -1.16050875    
  0.952499986       1.64977801      -0.00000000       239.976242      -1.16050875    
   1.00436401       1.61872697      -0.00000000       239.976242      -1.16050875    
   1.05521798       1.58604598      -0.00000000       239.976242      -1.16050875    
  0.791365981       1.73284900      -0.00000000       178.069962      -1.06097138    
  0.845947027       1.70686805      -0.00000000       178.069962      -1.06097138    
   0.00000000       0.00000000       0.00000000       178.069962      -1.06097138    
  0.735987008       1.75708497      -0.00000000       178.069962      -1.06097138    
  0.565632999       1.81908906      -0.00000000       126.298401     -0.875751853    
  0.623063982       1.80022705      -0.00000000       126.298401     -0.875751853    
   0.00000000       0.00000000       0.00000000       126.298401     -0.875751853    
  0.507632971       1.83611906      -0.00000000       126.298401     -0.875751853    
   0.00000000       0.00000000       0.00000000       150.828598     -0.983609021    
  0.623063982       1.80022705      -0.00000000       150.828598     -0.983609021    
  0.679867983       1.77955198      -0.00000000       150.828598     -0.983609021    
  0.735987008       1.75708497      -0.00000000       150.828598     -0.983609021    
  0.449120998       1.85130095      -0.00000000       104.961647     -0.721414149    
  0.507632971       1.83611906      -0.00000000       104.961647     -0.721414149    
   0.00000000       0.00000000       0.00000000       104.961647     -0.721414149    
  0.390157014       1.86461902      -0.00000000       104.961647     -0.721414149    
  0.211146995       1.89326203      -0.00000000       77.7446213     -0.200691387    
  0.271109998       1.88560998      -0.00000000       77.7446213     -0.200691387    
   0.00000000       0.00000000       0.00000000       77.7446213     -0.200691387    
  0.150970995       1.89900804      -0.00000000       77.7446213     -0.200691387    
   0.00000000       0.00000000       0.00000000       88.0802765     -0.500527143    
  0.271109998       1.88560998      -0.00000000       88.0802765     -0.500527143    
  0.330799997       1.87605906      -0.00000000       88.0802765     -0.500527143    
  0.390157014       1.86461902      -0.00000000       88.0802765     -0.500527143    
   9.06440020E-02   1.90284204      -0.00000000       76.3205643      0.144348979    
  0.150970995       1.89900804      -0.00000000       76.3205643      0.144348979    
   0.00000000       0.00000000       0.00000000       76.3205643      0.144348979    
   3.02249994E-02   1.90476000      -0.00000000       76.3205643      0.144348979    
 -0.150970995       1.89900804      -0.00000000       98.8809204      0.702311635    
  -9.06440020E-02   1.90284204      -0.00000000       98.8809204      0.702311635    
   0.00000000       0.00000000       0.00000000       98.8809204      0.702311635    
 -0.211146995       1.89326203      -0.00000000       98.8809204      0.702311635    
   0.00000000       0.00000000       0.00000000       84.0535126      0.460627854    
  -9.06440020E-02   1.90284204      -0.00000000       84.0535126      0.460627854    
  -3.02249994E-02   1.90476000      -0.00000000       84.0535126      0.460627854    
   3.02249994E-02   1.90476000      -0.00000000       84.0535126      0.460627854    
 -0.271109998       1.88560998      -0.00000000       118.343384      0.872262716    
 -0.211146995       1.89326203      -0.00000000       118.343384      0.872262716    
   0.00000000       0.00000000       0.00000000       118.343384      0.872262716    
 -0.330799997       1.87605906      -0.00000000       118.343384      0.872262716    
 -0.507632971       1.83611906      -0.00000000       165.477051       1.07362831    
 -0.449120998       1.85130095      -0.00000000       165.477051       1.07362831    
   0.00000000       0.00000000       0.00000000       165.477051       1.07362831    
 -0.565632999       1.81908906      -0.00000000       165.477051       1.07362831    
   0.00000000       0.00000000       0.00000000       140.751144      0.990111113    
 -0.449120998       1.85130095      -0.00000000       140.751144      0.990111113    
 -0.390157014       1.86461902      -0.00000000       140.751144      0.990111113    
 -0.330799997       1.87605906      -0.00000000       140.751144      0.990111113    
 -0.623063982       1.80022705      -0.00000000       192.120178       1.13414931    
 -0.565632999       1.81908906      -0.00000000       192.120178       1.13414931    
   0.00000000       0.00000000       0.00000000       192.120178       1.13414931    
 -0.679867983       1.77955198      -0.00000000       192.120178       1.13414931    
 -0.845947027       1.70686805      -0.00000000       251.343094       1.21304476    
 -0.791365981       1.73284900      -0.00000000       251.343094       1.21304476    
   0.00000000       0.00000000       0.00000000       251.343094       1.21304476    
 -0.899676025       1.67916906      -0.00000000       251.343094       1.21304476    
   0.00000000       0.00000000       0.00000000       220.710037       1.17909360    
 -0.791365981       1.73284900      -0.00000000       220.710037       1.17909360    
 -0.735987008       1.75708497      -0.00000000       220.710037       1.17909360    
 -0.679867983       1.77955198      -0.00000000       220.710037       1.17909360    
 -0.952499986       1.64977801      -0.00000000       283.815613       1.23891270    
 -0.899676025       1.67916906      -0.00000000       283.815613       1.23891270    
   0.00000000       0.00000000       0.00000000       283.815613       1.23891270    
  -1.00436401       1.61872697      -0.00000000       283.815613       1.23891270    
  -1.15368605       1.51592600      -0.00000000       351.609558       1.27355337    
  -1.10500801       1.55176699      -0.00000000       351.609558       1.27355337    
   0.00000000       0.00000000       0.00000000       351.609558       1.27355337    
  -1.20120299       1.47855902      -0.00000000       351.609558       1.27355337    
   0.00000000       0.00000000       0.00000000       317.570312       1.25861800    
  -1.10500801       1.55176699      -0.00000000       317.570312       1.25861800    
  -1.05521798       1.58604598      -0.00000000       317.570312       1.25861800    
  -1.00436401       1.61872697      -0.00000000       317.570312       1.25861800    
  -1.24750996       1.43970299      -0.00000000       384.064911       1.28474212    
  -1.20120299       1.47855902      -0.00000000       384.064911       1.28474212    
   0.00000000       0.00000000       0.00000000       384.064911       1.28474212    
  -1.29255998       1.39939702      -0.00000000       384.064911       1.28474212    
  -1.41972899       1.27019501      -0.00000000       413.838287       1.29658496    
  -1.37871301       1.31459999      -0.00000000       413.838287       1.29658496    
   0.00000000       0.00000000       0.00000000       413.838287       1.29658496    
  -1.45931494       1.22450995      -0.00000000       413.838287       1.29658496    
   0.00000000       0.00000000       0.00000000       407.794586       1.29237378    
  -1.37871301       1.31459999      -0.00000000       407.794586       1.29237378    
  -1.33631003       1.35768199      -0.00000000       407.794586       1.29237378    
  -1.29255998       1.39939702      -0.00000000       407.794586       1.29237378    
  -1.49743104       1.17759299      -0.00000000       410.810852       1.29909313    
  -1.45931494       1.22450995      -0.00000000       410.810852       1.29909313    
   0.00000000       0.00000000       0.00000000       410.810852       1.29909313    
  -1.53403997       1.12949002      -0.00000000       410.810852       1.29909313    
  -1.63445795      0.978555024      -0.00000000       402.177795       1.30240524    
  -1.60258806       1.02992105      -0.00000000       402.177795       1.30240524    
   0.00000000       0.00000000       0.00000000       402.177795       1.30240524    
  -1.66468298      0.926204979      -0.00000000       402.177795       1.30240524    
   0.00000000       0.00000000       0.00000000       406.304199       1.30094063    
  -1.60258806       1.02992105      -0.00000000       406.304199       1.30094063    
  -1.56910396       1.08024895      -0.00000000       406.304199       1.30094063    
  -1.53403997       1.12949002      -0.00000000       406.304199       1.30094063    
  -1.69323206      0.872922003      -0.00000000       399.295990       1.30364811    
  -1.66468298      0.926204979      -0.00000000       399.295990       1.30364811    
   0.00000000       0.00000000       0.00000000       399.295990       1.30364811    
  -1.72007501      0.818759024      -0.00000000       399.295990       1.30364811    
  -1.79011405      0.651548028      -0.00000000       397.466553       1.30563354    
  -1.76854098      0.708016992      -0.00000000       397.466553       1.30563354    
   0.00000000       0.00000000       0.00000000       397.466553       1.30563354    
  -1.80988598      0.594424009      -0.00000000       397.466553       1.30563354    
   0.00000000       0.00000000       0.00000000       397.783264       1.30471373    
  -1.76854098      0.708016992      -0.00000000       397.783264       1.30471373    
  -1.74518704      0.763773024      -0.00000000       397.783264       1.30471373    
  -1.72007501      0.818759024      -0.00000000       397.783264       1.30471373    
  -1.82783401      0.536701024      -0.00000000       398.036469       1.30642986    
  -1.80988598      0.594424009      -0.00000000       398.036469       1.30642986    
   0.00000000       0.00000000       0.00000000       398.036469       1.30642986    
  -1.84394205      0.478437006      -0.00000000       398.036469       1.30642986    
  -1.88107097      0.300992996      -0.00000000       400.442627       1.30763197    
  -1.87057400      0.360523999      -0.00000000       400.442627       1.30763197    
   0.00000000       0.00000000       0.00000000       400.442627       1.30763197    
  -1.88967395      0.241159007      -0.00000000       400.442627       1.30763197    
   0.00000000       0.00000000       0.00000000       399.167480       1.30710351    
  -1.87057400      0.360523999      -0.00000000       399.167480       1.30710351    
  -1.85819399      0.419692010      -0.00000000       399.167480       1.30710351    
  -1.84394205      0.478437006      -0.00000000       399.167480       1.30710351    
  -1.89637399      0.181081995      -0.00000000       401.395172       1.30797684    
  -1.88967395      0.241159007      -0.00000000       401.395172       1.30797684    
   0.00000000       0.00000000       0.00000000       401.395172       1.30797684    
  -1.90116501      0.120823003      -0.00000000       401.395172       1.30797684    
  -1.90404105      -6.04420006E-02  -0.00000000       402.025818       1.30814564    
  -1.90499997       0.00000000      -0.00000000       402.025818       1.30814564    
   0.00000000       0.00000000       0.00000000       402.025818       1.30814564    
  -1.90116501     -0.120823003      -0.00000000       402.025818       1.30814564    
   0.00000000       0.00000000       0.00000000       401.942535       1.30814874    
  -1.90499997       0.00000000      -0.00000000       401.942535       1.30814874    
  -1.90404105       6.04420006E-02  -0.00000000       401.942535       1.30814874    
  -1.90116501      0.120823003      -0.00000000       401.942535       1.30814874    
  -1.89637399     -0.181081995      -0.00000000       401.634125       1.30796659    
  -1.90116501     -0.120823003      -0.00000000       401.634125       1.30796659    
   0.00000000       0.00000000       0.00000000       401.634125       1.30796659    
  -1.88967395     -0.241159007      -0.00000000       401.634125       1.30796659    
  -1.85819399     -0.419692010      -0.00000000       399.878662       1.30709922    
  -1.87057400     -0.360523999      -0.00000000       399.878662       1.30709922    
   0.00000000       0.00000000       0.00000000       399.878662       1.30709922    
  -1.84394205     -0.478437006      -0.00000000       399.878662       1.30709922    
   0.00000000       0.00000000       0.00000000       400.838684       1.30761456    
  -1.87057400     -0.360523999      -0.00000000       400.838684       1.30761456    
  -1.88107097     -0.300992996      -0.00000000       400.838684       1.30761456    
  -1.88967395     -0.241159007      -0.00000000       400.838684       1.30761456    
  -1.82783401     -0.536701024      -0.00000000       399.312103       1.30647266    
  -1.84394205     -0.478437006      -0.00000000       399.312103       1.30647266    
   0.00000000       0.00000000       0.00000000       399.312103       1.30647266    
  -1.80988598     -0.594424009      -0.00000000       399.312103       1.30647266    
  -1.74518704     -0.763773024      -0.00000000       400.123199       1.30483902    
  -1.76854098     -0.708016992      -0.00000000       400.123199       1.30483902    
   0.00000000       0.00000000       0.00000000       400.123199       1.30483902    
  -1.72007501     -0.818759024      -0.00000000       400.123199       1.30483902    
   0.00000000       0.00000000       0.00000000       399.280182       1.30572283    
  -1.76854098     -0.708016992      -0.00000000       399.280182       1.30572283    
  -1.79011405     -0.651548028      -0.00000000       399.280182       1.30572283    
  -1.80988598     -0.594424009      -0.00000000       399.280182       1.30572283    
  -1.69323206     -0.872922003      -0.00000000       402.149170       1.30379260    
  -1.72007501     -0.818759024      -0.00000000       402.149170       1.30379260    
   0.00000000       0.00000000       0.00000000       402.149170       1.30379260    
  -1.66468298     -0.926204979      -0.00000000       402.149170       1.30379260    
  -1.56910396      -1.08024895      -0.00000000       409.313599       1.30106008    
  -1.60258806      -1.02992105      -0.00000000       409.313599       1.30106008    
   0.00000000       0.00000000       0.00000000       409.313599       1.30106008    
  -1.53403997      -1.12949002      -0.00000000       409.313599       1.30106008    
   0.00000000       0.00000000       0.00000000       405.344604       1.30256915    
  -1.60258806      -1.02992105      -0.00000000       405.344604       1.30256915    
  -1.63445795     -0.978555024      -0.00000000       405.344604       1.30256915    
  -1.66468298     -0.926204979      -0.00000000       405.344604       1.30256915    
  -1.49743104      -1.17759299      -0.00000000       413.188416       1.29910266    
  -1.53403997      -1.12949002      -0.00000000       413.188416       1.29910266    
   0.00000000       0.00000000       0.00000000       413.188416       1.29910266    
  -1.45931494      -1.22450995      -0.00000000       413.188416       1.29910266    
  -1.33631003      -1.35768199      -0.00000000       408.043549       1.29198694    
  -1.37871301      -1.31459999      -0.00000000       408.043549       1.29198694    
   0.00000000       0.00000000       0.00000000       408.043549       1.29198694    
  -1.29255998      -1.39939702      -0.00000000       408.043549       1.29198694    
   0.00000000       0.00000000       0.00000000       415.137146       1.29641366    
  -1.37871301      -1.31459999      -0.00000000       415.137146       1.29641366    
  -1.41972899      -1.27019501      -0.00000000       415.137146       1.29641366    
  -1.45931494      -1.22450995      -0.00000000       415.137146       1.29641366    
  -1.24750996      -1.43970299      -0.00000000       383.174011       1.28403938    
  -1.29255998      -1.39939702      -0.00000000       383.174011       1.28403938    
   0.00000000       0.00000000       0.00000000       383.174011       1.28403938    
  -1.20120299      -1.47855902      -0.00000000       383.174011       1.28403938    
  -1.05521798      -1.58604598      -0.00000000       314.458984       1.25677502    
  -1.10500801      -1.55176699      -0.00000000       314.458984       1.25677502    
   0.00000000       0.00000000       0.00000000       314.458984       1.25677502    
  -1.00436401      -1.61872697      -0.00000000       314.458984       1.25677502    
   0.00000000       0.00000000       0.00000000       349.433868       1.27236474    
  -1.10500801      -1.55176699      -0.00000000       349.433868       1.27236474    
  -1.15368605      -1.51592600      -0.00000000       349.433868       1.27236474    
  -1.20120299      -1.47855902      -0.00000000       349.433868       1.27236474    
 -0.952499986      -1.64977801      -0.00000000       280.234222       1.23629093    
  -1.00436401      -1.61872697      -0.00000000       280.234222       1.23629093    
   0.00000000       0.00000000       0.00000000       280.234222       1.23629093    
 -0.899676025      -1.67916906      -0.00000000       280.234222       1.23629093    
 -0.735987008      -1.75708497      -0.00000000       217.504440       1.17476177    
 -0.791365981      -1.73284900      -0.00000000       217.504440       1.17476177    
   0.00000000       0.00000000       0.00000000       217.504440       1.17476177    
 -0.679867983      -1.77955198      -0.00000000       217.504440       1.17476177    
   0.00000000       0.00000000       0.00000000       247.822922       1.20962870    
 -0.791365981      -1.73284900      -0.00000000       247.822922       1.20962870    
 -0.845947027      -1.70686805      -0.00000000       247.822922       1.20962870    
 -0.899676025      -1.67916906      -0.00000000       247.822922       1.20962870    
 -0.623063982      -1.80022705      -0.00000000       189.228973       1.12856448    
 -0.679867983      -1.77955198      -0.00000000       189.228973       1.12856448    
   0.00000000       0.00000000       0.00000000       189.228973       1.12856448    
 -0.565632999      -1.81908906      -0.00000000       189.228973       1.12856448    
 -0.390157014      -1.86461902      -0.00000000       138.542816      0.980282784    
 -0.449120998      -1.85130095      -0.00000000       138.542816      0.980282784    
   0.00000000       0.00000000       0.00000000       138.542816      0.980282784    
 -0.330799997      -1.87605906      -0.00000000       138.542816      0.980282784    
   0.00000000       0.00000000       0.00000000       162.920380       1.06632602    
 -0.449120998      -1.85130095      -0.00000000       162.920380       1.06632602    
 -0.507632971      -1.83611906      -0.00000000       162.920380       1.06632602    
 -0.565632999      -1.81908906      -0.00000000       162.920380       1.06632602    
 -0.271109998      -1.88560998      -0.00000000       116.431038      0.858694673    
 -0.330799997      -1.87605906      -0.00000000       116.431038      0.858694673    
   0.00000000       0.00000000       0.00000000       116.431038      0.858694673    
 -0.211146995      -1.89326203      -0.00000000       116.431038      0.858694673    
  -3.02249994E-02  -1.90476000      -0.00000000       83.0456238      0.435201734    
  -9.06440020E-02  -1.90284204      -0.00000000       83.0456238      0.435201734    
   0.00000000       0.00000000       0.00000000       83.0456238      0.435201734    
   3.02249994E-02  -1.90476000      -0.00000000       83.0456238      0.435201734    
   0.00000000       0.00000000       0.00000000       97.3249283      0.683333516    
  -9.06440020E-02  -1.90284204      -0.00000000       97.3249283      0.683333516    
 -0.150970995      -1.89900804      -0.00000000       97.3249283      0.683333516    
 -0.211146995      -1.89326203      -0.00000000       97.3249283      0.683333516    
   9.06440020E-02  -1.90284204      -0.00000000       76.0505753      0.113516174    
   3.02249994E-02  -1.90476000      -0.00000000       76.0505753      0.113516174    
   0.00000000       0.00000000       0.00000000       76.0505753      0.113516174    
  0.150970995      -1.89900804      -0.00000000       76.0505753      0.113516174    
  0.330799997      -1.87605906      -0.00000000       89.3946533     -0.525128901    
  0.271109998      -1.88560998      -0.00000000       89.3946533     -0.525128901    
   0.00000000       0.00000000       0.00000000       89.3946533     -0.525128901    
  0.390157014      -1.86461902      -0.00000000       89.3946533     -0.525128901    
   0.00000000       0.00000000       0.00000000       78.3258820     -0.231369466    
  0.271109998      -1.88560998      -0.00000000       78.3258820     -0.231369466    
  0.211146995      -1.89326203      -0.00000000       78.3258820     -0.231369466    
  0.150970995      -1.89900804      -0.00000000       78.3258820     -0.231369466    
  0.449120998      -1.85130095      -0.00000000       106.847313     -0.739518285    
  0.390157014      -1.86461902      -0.00000000       106.847313     -0.739518285    
   0.00000000       0.00000000       0.00000000       106.847313     -0.739518285    
  0.507632971      -1.83611906      -0.00000000       106.847313     -0.739518285    
  0.679867983      -1.77955198      -0.00000000       153.706589     -0.993545532    
  0.623063982      -1.80022705      -0.00000000       153.706589     -0.993545532    
   0.00000000       0.00000000       0.00000000       153.706589     -0.993545532    
  0.735987008      -1.75708497      -0.00000000       153.706589     -0.993545532    
   0.00000000       0.00000000       0.00000000       128.714737     -0.889051139    
  0.623063982      -1.80022705      -0.00000000       128.714737     -0.889051139    
  0.565632999      -1.81908906      -0.00000000       128.714737     -0.889051139    
  0.507632971      -1.83611906      -0.00000000       128.714737     -0.889051139    
  0.791365981      -1.73284900      -0.00000000       181.369186      -1.06853223    
  0.735987008      -1.75708497      -0.00000000       181.369186      -1.06853223    
   0.00000000       0.00000000       0.00000000       181.369186      -1.06853223    
  0.845947027      -1.70686805      -0.00000000       181.369186      -1.06853223    
   1.00436401      -1.61872697      -0.00000000       243.750397      -1.16488516    
  0.952499986      -1.64977801      -0.00000000       243.750397      -1.16488516    
   0.00000000       0.00000000       0.00000000       243.750397      -1.16488516    
   1.05521798      -1.58604598      -0.00000000       243.750397      -1.16488516    
   0.00000000       0.00000000       0.00000000       211.489990      -1.12365198    
  0.952499986      -1.64977801      -0.00000000       211.489990      -1.12365198    
  0.899676025      -1.67916906      -0.00000000       211.489990      -1.12365198    
  0.845947027      -1.70686805      -0.00000000       211.489990      -1.12365198    
   1.10500801      -1.55176699      -0.00000000       277.508209      -1.19596386    
   1.05521798      -1.58604598      -0.00000000       277.508209      -1.19596386    
   0.00000000       0.00000000       0.00000000       277.508209      -1.19596386    
   1.15368605      -1.51592600      -0.00000000       277.508209      -1.19596386    
   1.29255998      -1.39939702      -0.00000000       344.347534      -1.23677003    
   1.24750996      -1.43970299      -0.00000000       344.347534      -1.23677003    
   0.00000000       0.00000000       0.00000000       344.347534      -1.23677003    
   1.33631003      -1.35768199      -0.00000000       344.347534      -1.23677003    
   0.00000000       0.00000000       0.00000000       311.697266      -1.21938729    
   1.24750996      -1.43970299      -0.00000000       311.697266      -1.21938729    
   1.20120299      -1.47855902      -0.00000000       311.697266      -1.21938729    