 VARIABLES="X" "Y" "Z" "abs(p) (Pa)" "angle(p) (rad)"
ZONE N=    802,E =     800, F=FEPOINT, ET=QUADRILATERAL
   1.90499997       0.00000000      -0.00000000       1075.54895     -0.401870608    
   1.90404105      -6.04420006E-02  -0.00000000       1075.54895     -0.401870608    
   0.00000000       0.00000000       0.00000000       1075.54895     -0.401870608    
   1.90404105       6.04420006E-02  -0.00000000       1075.54895     -0.401870608    
   1.88967395      0.241159007      -0.00000000       1073.73108     -0.401979268    
   1.89637399      0.181081995      -0.00000000       1073.73108     -0.401979268    
   0.00000000       0.00000000       0.00000000       1073.73108     -0.401979268    
   1.88107097      0.300992996      -0.00000000       1073.73108     -0.401979268    
   0.00000000       0.00000000       0.00000000       1074.80786     -0.401689053    
   1.89637399      0.181081995      -0.00000000       1074.80786     -0.401689053    
   1.90116501      0.120823003      -0.00000000       1074.80786     -0.401689053    
   1.90404105       6.04420006E-02  -0.00000000       1074.80786     -0.401689053    
   1.87057400      0.360523999      -0.00000000       1073.54468     -0.403435171    
   1.88107097      0.300992996      -0.00000000       1073.54468     -0.403435171    
   0.00000000       0.00000000       0.00000000       1073.54468     -0.403435171    
   1.85819399      0.419692010      -0.00000000       1073.54468     -0.403435171    
   1.80988598      0.594424009      -0.00000000       1080.49744     -0.412249058    
   1.82783401      0.536701024      -0.00000000       1080.49744     -0.412249058    
   0.00000000       0.00000000       0.00000000       1080.49744     -0.412249058    
   1.79011405      0.651548028      -0.00000000       1080.49744     -0.412249058    
   0.00000000       0.00000000       0.00000000       1075.07532     -0.406456977    
   1.82783401      0.536701024      -0.00000000       1075.07532     -0.406456977    
   1.84394205      0.478437006      -0.00000000       1075.07532     -0.406456977    
   1.85819399      0.419692010      -0.00000000       1075.07532     -0.406456977    
   1.76854098      0.708016992      -0.00000000       1091.74329     -0.421681613    
   1.79011405      0.651548028      -0.00000000       1091.74329     -0.421681613    
   0.00000000       0.00000000       0.00000000       1091.74329     -0.421681613    
   1.74518704      0.763773024      -0.00000000       1091.74329     -0.421681613    
   1.66468298      0.926204979      -0.00000000       1136.22095     -0.452084273    
   1.69323206      0.872922003      -0.00000000       1136.22095     -0.452084273    
   0.00000000       0.00000000       0.00000000       1136.22095     -0.452084273    
   1.63445795      0.978555024      -0.00000000       1136.22095     -0.452084273    
   0.00000000       0.00000000       0.00000000       1110.00818     -0.435002327    
   1.69323206      0.872922003      -0.00000000       1110.00818     -0.435002327    
   1.72007501      0.818759024      -0.00000000       1110.00818     -0.435002327    
   1.74518704      0.763773024      -0.00000000       1110.00818     -0.435002327    
   1.60258806       1.02992105      -0.00000000       1169.36646     -0.471608818    
   1.63445795      0.978555024      -0.00000000       1169.36646     -0.471608818    
   0.00000000       0.00000000       0.00000000       1169.36646     -0.471608818    
   1.56910396       1.08024895      -0.00000000       1169.36646     -0.471608818    
   1.45931494       1.22450995      -0.00000000       1236.47217     -0.506605446    
   1.49743104       1.17759299      -0.00000000       1236.47217     -0.506605446    
   0.00000000       0.00000000       0.00000000       1236.47217     -0.506605446    
   1.41972899       1.27019501      -0.00000000       1236.47217     -0.506605446    
   0.00000000       0.00000000       0.00000000       1205.59912     -0.491112649    
   1.49743104       1.17759299      -0.00000000       1205.59912     -0.491112649    
   1.53403997       1.12949002      -0.00000000       1205.59912     -0.491112649    
   1.56910396       1.08024895      -0.00000000       1205.59912     -0.491112649    
   1.37871301       1.31459999      -0.00000000       1236.48022     -0.507370532    
   1.41972899       1.27019501      -0.00000000       1236.48022     -0.507370532    
   0.00000000       0.00000000       0.00000000       1236.48022     -0.507370532    
   1.33631003       1.35768199      -0.00000000       1236.48022     -0.507370532    
   1.20120299       1.47855902      -0.00000000       1085.41541     -0.427450299    
   1.24750996       1.43970299      -0.00000000       1085.41541     -0.427450299    
   0.00000000       0.00000000       0.00000000       1085.41541     -0.427450299    
   1.15368605       1.51592600      -0.00000000       1085.41541     -0.427450299    
   0.00000000       0.00000000       0.00000000       1175.43115     -0.478363037    
   1.24750996       1.43970299      -0.00000000       1175.43115     -0.478363037    
   1.29255998       1.39939702      -0.00000000       1175.43115     -0.478363037    
   1.33631003       1.35768199      -0.00000000       1175.43115     -0.478363037    
   1.10500801       1.55176699      -0.00000000       995.942200     -0.363822132    
   1.15368605       1.51592600      -0.00000000       995.942200     -0.363822132    
   0.00000000       0.00000000       0.00000000       995.942200     -0.363822132    
   1.05521798       1.58604598      -0.00000000       995.942200     -0.363822132    
  0.899676025       1.67916906      -0.00000000       851.715759     -0.210746512    
  0.952499986       1.64977801      -0.00000000       851.715759     -0.210746512    
   0.00000000       0.00000000       0.00000000       851.715759     -0.210746512    
  0.845947027       1.70686805      -0.00000000       851.715759     -0.210746512    
   0.00000000       0.00000000       0.00000000       916.868042     -0.290815085    
  0.952499986       1.64977801      -0.00000000       916.868042     -0.290815085    
   1.00436401       1.61872697      -0.00000000       916.868042     -0.290815085    
   1.05521798       1.58604598      -0.00000000       916.868042     -0.290815085    
  0.791365981       1.73284900      -0.00000000       801.543030     -0.125753775    
  0.845947027       1.70686805      -0.00000000       801.543030     -0.125753775    
   0.00000000       0.00000000       0.00000000       801.543030     -0.125753775    
  0.735987008       1.75708497      -0.00000000       801.543030     -0.125753775    
  0.565632999       1.81908906      -0.00000000       743.123901       5.07039987E-02
  0.623063982       1.80022705      -0.00000000       743.123901       5.07039987E-02
   0.00000000       0.00000000       0.00000000       743.123901       5.07039987E-02
  0.507632971       1.83611906      -0.00000000       743.123901       5.07039987E-02
   0.00000000       0.00000000       0.00000000       765.851807      -3.81132327E-02
  0.623063982       1.80022705      -0.00000000       765.851807      -3.81132327E-02
  0.679867983       1.77955198      -0.00000000       765.851807      -3.81132327E-02
  0.735987008       1.75708497      -0.00000000       765.851807      -3.81132327E-02
  0.449120998       1.85130095      -0.00000000       731.989075      0.139580458    
  0.507632971       1.83611906      -0.00000000       731.989075      0.139580458    
   0.00000000       0.00000000       0.00000000       731.989075      0.139580458    
  0.390157014       1.86461902      -0.00000000       731.989075      0.139580458    
  0.211146995       1.89326203      -0.00000000       739.905396      0.312258124    
  0.271109998       1.88560998      -0.00000000       739.905396      0.312258124    
   0.00000000       0.00000000       0.00000000       739.905396      0.312258124    
  0.150970995       1.89900804      -0.00000000       739.905396      0.312258124    
   0.00000000       0.00000000       0.00000000       731.118652      0.227508441    
  0.271109998       1.88560998      -0.00000000       731.118652      0.227508441    
  0.330799997       1.87605906      -0.00000000       731.118652      0.227508441    
  0.390157014       1.86461902      -0.00000000       731.118652      0.227508441    
   9.06440020E-02   1.90284204      -0.00000000       757.170288      0.392583191    
  0.150970995       1.89900804      -0.00000000       757.170288      0.392583191    
   0.00000000       0.00000000       0.00000000       757.170288      0.392583191    
   3.02249994E-02   1.90476000      -0.00000000       757.170288      0.392583191    
 -0.150970995       1.89900804      -0.00000000       812.959229      0.534328222    
  -9.06440020E-02   1.90284204      -0.00000000       812.959229      0.534328222    
   0.00000000       0.00000000       0.00000000       812.959229      0.534328222    
 -0.211146995       1.89326203      -0.00000000       812.959229      0.534328222    
   0.00000000       0.00000000       0.00000000       781.824158      0.467188120    
  -9.06440020E-02   1.90284204      -0.00000000       781.824158      0.467188120    
  -3.02249994E-02   1.90476000      -0.00000000       781.824158      0.467188120    
   3.02249994E-02   1.90476000      -0.00000000       781.824158      0.467188120    
 -0.271109998       1.88560998      -0.00000000       850.580200      0.593257725    
 -0.211146995       1.89326203      -0.00000000       850.580200      0.593257725    
   0.00000000       0.00000000       0.00000000       850.580200      0.593257725    
 -0.330799997       1.87605906      -0.00000000       850.580200      0.593257725    
 -0.507632971       1.83611906      -0.00000000       945.192505      0.687013507    
 -0.449120998       1.85130095      -0.00000000       945.192505      0.687013507    
   0.00000000       0.00000000       0.00000000       945.192505      0.687013507    
 -0.565632999       1.81908906      -0.00000000       945.192505      0.687013507    
   0.00000000       0.00000000       0.00000000       894.649597      0.644063294    
 -0.449120998       1.85130095      -0.00000000       894.649597      0.644063294    
 -0.390157014       1.86461902      -0.00000000       894.649597      0.644063294    
 -0.330799997       1.87605906      -0.00000000       894.649597      0.644063294    
 -0.623063982       1.80022705      -0.00000000       1003.70544      0.722506642    
 -0.565632999       1.81908906      -0.00000000       1003.70544      0.722506642    
   0.00000000       0.00000000       0.00000000       1003.70544      0.722506642    
 -0.679867983       1.77955198      -0.00000000       1003.70544      0.722506642    
 -0.845947027       1.70686805      -0.00000000       1148.93848      0.773437083    
 -0.791365981       1.73284900      -0.00000000       1148.93848      0.773437083    
   0.00000000       0.00000000       0.00000000       1148.93848      0.773437083    
 -0.899676025       1.67916906      -0.00000000       1148.93848      0.773437083    
   0.00000000       0.00000000       0.00000000       1071.41040      0.751159787    
 -0.791365981       1.73284900      -0.00000000       1071.41040      0.751159787    
 -0.735987008       1.75708497      -0.00000000       1071.41040      0.751159787    
 -0.679867983       1.77955198      -0.00000000       1071.41040      0.751159787    
 -0.952499986       1.64977801      -0.00000000       1236.56836      0.790259004    
 -0.899676025       1.67916906      -0.00000000       1236.56836      0.790259004    
   0.00000000       0.00000000       0.00000000       1236.56836      0.790259004    
  -1.00436401       1.61872697      -0.00000000       1236.56836      0.790259004    
  -1.15368605       1.51592600      -0.00000000       1433.01184      0.811011493    
  -1.10500801       1.55176699      -0.00000000       1433.01184      0.811011493    
   0.00000000       0.00000000       0.00000000       1433.01184      0.811011493    
  -1.20120299       1.47855902      -0.00000000       1433.01184      0.811011493    
   0.00000000       0.00000000       0.00000000       1332.80884      0.802518725    
  -1.10500801       1.55176699      -0.00000000       1332.80884      0.802518725    
  -1.05521798       1.58604598      -0.00000000       1332.80884      0.802518725    
  -1.00436401       1.61872697      -0.00000000       1332.80884      0.802518725    
  -1.24750996       1.43970299      -0.00000000       1527.70215      0.816728950    
  -1.20120299       1.47855902      -0.00000000       1527.70215      0.816728950    
   0.00000000       0.00000000       0.00000000       1527.70215      0.816728950    
  -1.29255998       1.39939702      -0.00000000       1527.70215      0.816728950    
  -1.41972899       1.27019501      -0.00000000       1586.12939      0.828370452    
  -1.37871301       1.31459999      -0.00000000       1586.12939      0.828370452    
   0.00000000       0.00000000       0.00000000       1586.12939      0.828370452    
  -1.45931494       1.22450995      -0.00000000       1586.12939      0.828370452    
   0.00000000       0.00000000       0.00000000       1589.53613      0.821707666    
  -1.37871301       1.31459999      -0.00000000       1589.53613      0.821707666    
  -1.33631003       1.35768199      -0.00000000       1589.53613      0.821707666    
  -1.29255998       1.39939702      -0.00000000       1589.53613      0.821707666    
  -1.49743104       1.17759299      -0.00000000       1548.67371      0.835536778    
  -1.45931494       1.22450995      -0.00000000       1548.67371      0.835536778    
   0.00000000       0.00000000       0.00000000       1548.67371      0.835536778    
  -1.53403997       1.12949002      -0.00000000       1548.67371      0.835536778    
  -1.63445795      0.978555024      -0.00000000       1468.15686      0.847339094    
  -1.60258806       1.02992105      -0.00000000       1468.15686      0.847339094    
   0.00000000       0.00000000       0.00000000       1468.15686      0.847339094    
  -1.66468298      0.926204979      -0.00000000       1468.15686      0.847339094    
   0.00000000       0.00000000       0.00000000       1506.17090      0.841947079    
  -1.60258806       1.02992105      -0.00000000       1506.17090      0.841947079    
  -1.56910396       1.08024895      -0.00000000       1506.17090      0.841947079    
  -1.53403997       1.12949002      -0.00000000       1506.17090      0.841947079    
  -1.69323206      0.872922003      -0.00000000       1437.99426      0.851642787    
  -1.66468298      0.926204979      -0.00000000       1437.99426      0.851642787    
   0.00000000       0.00000000       0.00000000       1437.99426      0.851642787    
  -1.72007501      0.818759024      -0.00000000       1437.99426      0.851642787    
  -1.79011405      0.651548028      -0.00000000       1403.76208      0.857194602    
  -1.76854098      0.708016992      -0.00000000       1403.76208      0.857194602    
   0.00000000       0.00000000       0.00000000       1403.76208      0.857194602    
  -1.80988598      0.594424009      -0.00000000       1403.76208      0.857194602    
   0.00000000       0.00000000       0.00000000       1416.75244      0.854883373    
  -1.76854098      0.708016992      -0.00000000       1416.75244      0.854883373    
  -1.74518704      0.763773024      -0.00000000       1416.75244      0.854883373    
  -1.72007501      0.818759024      -0.00000000       1416.75244      0.854883373    
  -1.82783401      0.536701024      -0.00000000       1396.96790      0.858774662    
  -1.80988598      0.594424009      -0.00000000       1396.96790      0.858774662    
   0.00000000       0.00000000       0.00000000       1396.96790      0.858774662    
  -1.84394205      0.478437006      -0.00000000       1396.96790      0.858774662    
  -1.88107097      0.300992996      -0.00000000       1393.82727      0.860378504    
  -1.87057400      0.360523999      -0.00000000       1393.82727      0.860378504    
   0.00000000       0.00000000       0.00000000       1393.82727      0.860378504    
  -1.88967395      0.241159007      -0.00000000       1393.82727      0.860378504    
   0.00000000       0.00000000       0.00000000       1394.37488      0.859768391    
  -1.87057400      0.360523999      -0.00000000       1394.37488      0.859768391    
  -1.85819399      0.419692010      -0.00000000       1394.37488      0.859768391    
  -1.84394205      0.478437006      -0.00000000       1394.37488      0.859768391    
  -1.89637399      0.181081995      -0.00000000       1394.75793      0.860703826    
  -1.88967395      0.241159007      -0.00000000       1394.75793      0.860703826    
   0.00000000       0.00000000       0.00000000       1394.75793      0.860703826    
  -1.90116501      0.120823003      -0.00000000       1394.75793      0.860703826    
  -1.90404105      -6.04420006E-02  -0.00000000       1395.63721      0.860786438    
  -1.90499997       0.00000000      -0.00000000       1395.63721      0.860786438    
   0.00000000       0.00000000       0.00000000       1395.63721      0.860786438    
  -1.90116501     -0.120823003      -0.00000000       1395.63721      0.860786438    
   0.00000000       0.00000000       0.00000000       1395.67297      0.860825062    
  -1.90499997       0.00000000      -0.00000000       1395.67297      0.860825062    
  -1.90404105       6.04420006E-02  -0.00000000       1395.67297      0.860825062    
  -1.90116501      0.120823003      -0.00000000       1395.67297      0.860825062    
  -1.89637399     -0.181081995      -0.00000000       1394.91394      0.860588372    
  -1.90116501     -0.120823003      -0.00000000       1394.91394      0.860588372    
   0.00000000       0.00000000       0.00000000       1394.91394      0.860588372    
  -1.88967395     -0.241159007      -0.00000000       1394.91394      0.860588372    
  -1.85819399     -0.419692010      -0.00000000       1396.29053      0.859477401    
  -1.87057400     -0.360523999      -0.00000000       1396.29053      0.859477401    
   0.00000000       0.00000000       0.00000000       1396.29053      0.859477401    
  -1.84394205     -0.478437006      -0.00000000       1396.29053      0.859477401    
   0.00000000       0.00000000       0.00000000       1394.85291      0.860181212    
  -1.87057400     -0.360523999      -0.00000000       1394.85291      0.860181212    
  -1.88107097     -0.300992996      -0.00000000       1394.85291      0.860181212    
  -1.88967395     -0.241159007      -0.00000000       1394.85291      0.860181212    
  -1.82783401     -0.536701024      -0.00000000       1400.08789      0.858377397    
  -1.84394205     -0.478437006      -0.00000000       1400.08789      0.858377397    
   0.00000000       0.00000000       0.00000000       1400.08789      0.858377397    
  -1.80988598     -0.594424009      -0.00000000       1400.08789      0.858377397    
  -1.74518704     -0.763773024      -0.00000000       1423.82507      0.854310393    
  -1.76854098     -0.708016992      -0.00000000       1423.82507      0.854310393    
   0.00000000       0.00000000       0.00000000       1423.82507      0.854310393    
  -1.72007501     -0.818759024      -0.00000000       1423.82507      0.854310393    
   0.00000000       0.00000000       0.00000000       1408.66479      0.856702566    
  -1.76854098     -0.708016992      -0.00000000       1408.66479      0.856702566    
  -1.79011405     -0.651548028      -0.00000000       1408.66479      0.856702566    
  -1.80988598     -0.594424009      -0.00000000       1408.66479      0.856702566    
  -1.69323206     -0.872922003      -0.00000000       1446.78613      0.851007044    
  -1.72007501     -0.818759024      -0.00000000       1446.78613      0.851007044    
   0.00000000       0.00000000       0.00000000       1446.78613      0.851007044    
  -1.66468298     -0.926204979      -0.00000000       1446.78613      0.851007044    
  -1.56910396      -1.08024895      -0.00000000       1515.97070      0.841251969    
  -1.60258806      -1.02992105      -0.00000000       1515.97070      0.841251969    
   0.00000000       0.00000000       0.00000000       1515.97070      0.841251969    
  -1.53403997      -1.12949002      -0.00000000       1515.97070      0.841251969    
   0.00000000       0.00000000       0.00000000       1477.93787      0.846663952    
  -1.60258806      -1.02992105      -0.00000000       1477.93787      0.846663952    
  -1.63445795     -0.978555024      -0.00000000       1477.93787      0.846663952    
  -1.66468298     -0.926204979      -0.00000000       1477.93787      0.846663952    
  -1.49743104      -1.17759299      -0.00000000       1556.54529      0.834817529    
  -1.53403997      -1.12949002      -0.00000000       1556.54529      0.834817529    
   0.00000000       0.00000000       0.00000000       1556.54529      0.834817529    
  -1.45931494      -1.22450995      -0.00000000       1556.54529      0.834817529    
  -1.33631003      -1.35768199      -0.00000000       1590.67151      0.820675790    
  -1.37871301      -1.31459999      -0.00000000       1590.67151      0.820675790    
   0.00000000       0.00000000       0.00000000       1590.67151      0.820675790    
  -1.29255998      -1.39939702      -0.00000000       1590.67151      0.820675790    
   0.00000000       0.00000000       0.00000000       1590.45984      0.827549398    
  -1.37871301      -1.31459999      -0.00000000       1590.45984      0.827549398    
  -1.41972899      -1.27019501      -0.00000000       1590.45984      0.827549398    
  -1.45931494      -1.22450995      -0.00000000       1590.45984      0.827549398    
  -1.24750996      -1.43970299      -0.00000000       1525.45276      0.815400779    
  -1.29255998      -1.39939702      -0.00000000       1525.45276      0.815400779    
   0.00000000       0.00000000       0.00000000       1525.45276      0.815400779    
  -1.20120299      -1.47855902      -0.00000000       1525.45276      0.815400779    
  -1.05521798      -1.58604598      -0.00000000       1324.15137      0.800608158    
  -1.10500801      -1.55176699      -0.00000000       1324.15137      0.800608158    
   0.00000000       0.00000000       0.00000000       1324.15137      0.800608158    
  -1.00436401      -1.61872697      -0.00000000       1324.15137      0.800608158    
   0.00000000       0.00000000       0.00000000       1426.84814      0.809407592    
  -1.10500801      -1.55176699      -0.00000000       1426.84814      0.809407592    
  -1.15368605      -1.51592600      -0.00000000       1426.84814      0.809407592    
  -1.20120299      -1.47855902      -0.00000000       1426.84814      0.809407592    
 -0.952499986      -1.64977801      -0.00000000       1227.28101      0.787994683    
  -1.00436401      -1.61872697      -0.00000000       1227.28101      0.787994683    
   0.00000000       0.00000000       0.00000000       1227.28101      0.787994683    
 -0.899676025      -1.67916906      -0.00000000       1227.28101      0.787994683    
 -0.735987008      -1.75708497      -0.00000000       1063.29785      0.747753382    
 -0.791365981      -1.73284900      -0.00000000       1063.29785      0.747753382    
   0.00000000       0.00000000       0.00000000       1063.29785      0.747753382    
 -0.679867983      -1.77955198      -0.00000000       1063.29785      0.747753382    
   0.00000000       0.00000000       0.00000000       1139.94177      0.770707309    
 -0.791365981      -1.73284900      -0.00000000       1139.94177      0.770707309    
 -0.845947027      -1.70686805      -0.00000000       1139.94177      0.770707309    
 -0.899676025      -1.67916906      -0.00000000       1139.94177      0.770707309    
 -0.623063982      -1.80022705      -0.00000000       997.114441      0.718505085    
 -0.679867983      -1.77955198      -0.00000000       997.114441      0.718505085    
   0.00000000       0.00000000       0.00000000       997.114441      0.718505085    
 -0.565632999      -1.81908906      -0.00000000       997.114441      0.718505085    
 -0.390157014      -1.86461902      -0.00000000       890.253540      0.638893783    
 -0.449120998      -1.85130095      -0.00000000       890.253540      0.638893783    
   0.00000000       0.00000000       0.00000000       890.253540      0.638893783    
 -0.330799997      -1.87605906      -0.00000000       890.253540      0.638893783    
   0.00000000       0.00000000       0.00000000       939.919373      0.682450175    
 -0.449120998      -1.85130095      -0.00000000       939.919373      0.682450175    
 -0.507632971      -1.83611906      -0.00000000       939.919373      0.682450175    
 -0.565632999      -1.81908906      -0.00000000       939.919373      0.682450175    
 -0.271109998      -1.88560998      -0.00000000       846.853760      0.587449253    
 -0.330799997      -1.87605906      -0.00000000       846.853760      0.587449253    
   0.00000000       0.00000000       0.00000000       846.853760      0.587449253    
 -0.211146995      -1.89326203      -0.00000000       846.853760      0.587449253    
  -3.02249994E-02  -1.90476000      -0.00000000       779.050293      0.460070491    
  -9.06440020E-02  -1.90284204      -0.00000000       779.050293      0.460070491    
   0.00000000       0.00000000       0.00000000       779.050293      0.460070491    
   3.02249994E-02  -1.90476000      -0.00000000       779.050293      0.460070491    
   0.00000000       0.00000000       0.00000000       809.881287      0.527777314    
  -9.06440020E-02  -1.90284204      -0.00000000       809.881287      0.527777314    
 -0.150970995      -1.89900804      -0.00000000       809.881287      0.527777314    
 -0.211146995      -1.89326203      -0.00000000       809.881287      0.527777314    
   9.06440020E-02  -1.90284204      -0.00000000       754.638855      0.385056734    
   3.02249994E-02  -1.90476000      -0.00000000       754.638855      0.385056734    
   0.00000000       0.00000000       0.00000000       754.638855      0.385056734    
  0.150970995      -1.89900804      -0.00000000       754.638855      0.385056734    
  0.330799997      -1.87605906      -0.00000000       729.879761      0.218939289    
  0.271109998      -1.88560998      -0.00000000       729.879761      0.218939289    
   0.00000000       0.00000000       0.00000000       729.879761      0.218939289    
  0.390157014      -1.86461902      -0.00000000       729.879761      0.218939289    
   0.00000000       0.00000000       0.00000000       737.819153      0.304330647    
  0.271109998      -1.88560998      -0.00000000       737.819153      0.304330647    
  0.211146995      -1.89326203      -0.00000000       737.819153      0.304330647    
  0.150970995      -1.89900804      -0.00000000       737.819153      0.304330647    
  0.449120998      -1.85130095      -0.00000000       731.664856      0.130425587    
  0.390157014      -1.86461902      -0.00000000       731.664856      0.130425587    
   0.00000000       0.00000000       0.00000000       731.664856      0.130425587    
  0.507632971      -1.83611906      -0.00000000       731.664856      0.130425587    
  0.679867983      -1.77955198      -0.00000000       768.206238      -4.85172085E-02
  0.623063982      -1.80022705      -0.00000000       768.206238      -4.85172085E-02
   0.00000000       0.00000000       0.00000000       768.206238      -4.85172085E-02
  0.735987008      -1.75708497      -0.00000000       768.206238      -4.85172085E-02
   0.00000000       0.00000000       0.00000000       743.930725       4.10045944E-02
  0.623063982      -1.80022705      -0.00000000       743.930725       4.10045944E-02
  0.565632999      -1.81908906      -0.00000000       743.930725       4.10045944E-02
  0.507632971      -1.83611906      -0.00000000       743.930725       4.10045944E-02
  0.791365981      -1.73284900      -0.00000000       805.769287     -0.136545658    
  0.735987008      -1.75708497      -0.00000000       805.769287     -0.136545658    
   0.00000000       0.00000000       0.00000000       805.769287     -0.136545658    
  0.845947027      -1.70686805      -0.00000000       805.769287     -0.136545658    
   1.00436401      -1.61872697      -0.00000000       923.602966     -0.299755245    
  0.952499986      -1.64977801      -0.00000000       923.602966     -0.299755245    
   0.00000000       0.00000000       0.00000000       923.602966     -0.299755245    
   1.05521798      -1.58604598      -0.00000000       923.602966     -0.299755245    
   0.00000000       0.00000000       0.00000000       857.496765     -0.220857769    
  0.952499986      -1.64977801      -0.00000000       857.496765     -0.220857769    
  0.899676025      -1.67916906      -0.00000000       857.496765     -0.220857769    
  0.845947027      -1.70686805      -0.00000000       857.496765     -0.220857769    
   1.10500801      -1.55176699      -0.00000000       1002.71716     -0.371133089    
   1.05521798      -1.58604598      -0.00000000       1002.71716     -0.371133089    
   0.00000000       0.00000000       0.00000000       1002.71716     -0.371133089    
   1.15368605      -1.51592600      -0.00000000       1002.71716     -0.371133089    
   1.29255998      -1.39939702      -0.00000000       1177.03394     -0.481206745    
   1.24750996      -1.43970299      -0.00000000       1177.03394     -0.481206745    
   0.00000000       0.00000000       0.00000000       1177.03394     -0.481206745    
   1.33631003      -1.35768199      -0.00000000       1177.03394     -0.481206745    
   0.00000000       0.00000000       0.00000000       1090.42212     -0.432549566    
   1.24750996      -1.43970299      -0.00000000       1090.42212     -0.432549566    
   1.20120299      -1.47855902      -0.00000000       1090.42212     -0.432549566    