 VARIABLES="X" "Y" "Z" "abs(p) (Pa)" "angle(p) (rad)"
ZONE N=    802,E =     800, F=FEPOINT, ET=QUADRILATERAL
   1.90499997       0.00000000      -0.00000000      0.685557961       1.54063392    
   1.90404105      -6.04420006E-02  -0.00000000      0.685557961       1.54063392    
   0.00000000       0.00000000       0.00000000      0.685557961       1.54063392    
   1.90404105       6.04420006E-02  -0.00000000      0.685557961       1.54063392    
   1.88967395      0.241159007      -0.00000000       37.3500900       1.57095969    
   1.89637399      0.181081995      -0.00000000       37.3500900       1.57095969    
   0.00000000       0.00000000       0.00000000       37.3500900       1.57095969    
   1.88107097      0.300992996      -0.00000000       37.3500900       1.57095969    
   0.00000000       0.00000000       0.00000000       18.9668732       1.57042027    
   1.89637399      0.181081995      -0.00000000       18.9668732       1.57042027    
   1.90116501      0.120823003      -0.00000000       18.9668732       1.57042027    
   1.90404105       6.04420006E-02  -0.00000000       18.9668732       1.57042027    
   1.87057400      0.360523999      -0.00000000       56.1067848       1.57113385    
   1.88107097      0.300992996      -0.00000000       56.1067848       1.57113385    
   0.00000000       0.00000000       0.00000000       56.1067848       1.57113385    
   1.85819399      0.419692010      -0.00000000       56.1067848       1.57113385    
   1.80988598      0.594424009      -0.00000000       95.1974945       1.57123685    
   1.82783401      0.536701024      -0.00000000       95.1974945       1.57123685    
   0.00000000       0.00000000       0.00000000       95.1974945       1.57123685    
   1.79011405      0.651548028      -0.00000000       95.1974945       1.57123685    
   0.00000000       0.00000000       0.00000000       75.3259583       1.57120717    
   1.82783401      0.536701024      -0.00000000       75.3259583       1.57120717    
   1.84394205      0.478437006      -0.00000000       75.3259583       1.57120717    
   1.85819399      0.419692010      -0.00000000       75.3259583       1.57120717    
   1.76854098      0.708016992      -0.00000000       115.970772       1.57123971    
   1.79011405      0.651548028      -0.00000000       115.970772       1.57123971    
   0.00000000       0.00000000       0.00000000       115.970772       1.57123971    
   1.74518704      0.763773024      -0.00000000       115.970772       1.57123971    
   1.66468298      0.926204979      -0.00000000       160.124237       1.57120383    
   1.69323206      0.872922003      -0.00000000       160.124237       1.57120383    
   0.00000000       0.00000000       0.00000000       160.124237       1.57120383    
   1.63445795      0.978555024      -0.00000000       160.124237       1.57120383    
   0.00000000       0.00000000       0.00000000       137.598633       1.57122815    
   1.69323206      0.872922003      -0.00000000       137.598633       1.57122815    
   1.72007501      0.818759024      -0.00000000       137.598633       1.57122815    
   1.74518704      0.763773024      -0.00000000       137.598633       1.57122815    
   1.60258806       1.02992105      -0.00000000       183.258087       1.57117498    
   1.63445795      0.978555024      -0.00000000       183.258087       1.57117498    
   0.00000000       0.00000000       0.00000000       183.258087       1.57117498    
   1.56910396       1.08024895      -0.00000000       183.258087       1.57117498    
   1.45931494       1.22450995      -0.00000000       228.757721       1.57111931    
   1.49743104       1.17759299      -0.00000000       228.757721       1.57111931    
   0.00000000       0.00000000       0.00000000       228.757721       1.57111931    
   1.41972899       1.27019501      -0.00000000       228.757721       1.57111931    
   0.00000000       0.00000000       0.00000000       206.597183       1.57114398    
   1.49743104       1.17759299      -0.00000000       206.597183       1.57114398    
   1.53403997       1.12949002      -0.00000000       206.597183       1.57114398    
   1.56910396       1.08024895      -0.00000000       206.597183       1.57114398    
   1.37871301       1.31459999      -0.00000000       245.257446       1.57112610    
   1.41972899       1.27019501      -0.00000000       245.257446       1.57112610    
   0.00000000       0.00000000       0.00000000       245.257446       1.57112610    
   1.33631003       1.35768199      -0.00000000       245.257446       1.57112610    
   1.20120299       1.47855902      -0.00000000       249.270905       1.57129073    
   1.24750996       1.43970299      -0.00000000       249.270905       1.57129073    
   0.00000000       0.00000000       0.00000000       249.270905       1.57129073    
   1.15368605       1.51592600      -0.00000000       249.270905       1.57129073    
   0.00000000       0.00000000       0.00000000       250.252213       1.57119393    
   1.24750996       1.43970299      -0.00000000       250.252213       1.57119393    
   1.29255998       1.39939702      -0.00000000       250.252213       1.57119393    
   1.33631003       1.35768199      -0.00000000       250.252213       1.57119393    
   1.10500801       1.55176699      -0.00000000       247.295090       1.57138669    
   1.15368605       1.51592600      -0.00000000       247.295090       1.57138669    
   0.00000000       0.00000000       0.00000000       247.295090       1.57138669    
   1.05521798       1.58604598      -0.00000000       247.295090       1.57138669    
  0.899676025       1.67916906      -0.00000000       244.507904       1.57154989    
  0.952499986       1.64977801      -0.00000000       244.507904       1.57154989    
   0.00000000       0.00000000       0.00000000       244.507904       1.57154989    
  0.845947027       1.70686805      -0.00000000       244.507904       1.57154989    
   0.00000000       0.00000000       0.00000000       245.602188       1.57147431    
  0.952499986       1.64977801      -0.00000000       245.602188       1.57147431    
   1.00436401       1.61872697      -0.00000000       245.602188       1.57147431    
   1.05521798       1.58604598      -0.00000000       245.602188       1.57147431    
  0.791365981       1.73284900      -0.00000000       244.225357       1.57161260    
  0.845947027       1.70686805      -0.00000000       244.225357       1.57161260    
   0.00000000       0.00000000       0.00000000       244.225357       1.57161260    
  0.735987008       1.75708497      -0.00000000       244.225357       1.57161260    
  0.565632999       1.81908906      -0.00000000       245.671066       1.57169771    
  0.623063982       1.80022705      -0.00000000       245.671066       1.57169771    
   0.00000000       0.00000000       0.00000000       245.671066       1.57169771    
  0.507632971       1.83611906      -0.00000000       245.671066       1.57169771    
   0.00000000       0.00000000       0.00000000       244.705399       1.57166123    
  0.623063982       1.80022705      -0.00000000       244.705399       1.57166123    
  0.679867983       1.77955198      -0.00000000       244.705399       1.57166123    
  0.735987008       1.75708497      -0.00000000       244.705399       1.57166123    
  0.449120998       1.85130095      -0.00000000       246.826935       1.57172489    
  0.507632971       1.83611906      -0.00000000       246.826935       1.57172489    
   0.00000000       0.00000000       0.00000000       246.826935       1.57172489    
  0.390157014       1.86461902      -0.00000000       246.826935       1.57172489    
  0.211146995       1.89326203      -0.00000000       249.033737       1.57175398    
  0.271109998       1.88560998      -0.00000000       249.033737       1.57175398    
   0.00000000       0.00000000       0.00000000       249.033737       1.57175398    
  0.150970995       1.89900804      -0.00000000       249.033737       1.57175398    
   0.00000000       0.00000000       0.00000000       248.002014       1.57174325    
  0.271109998       1.88560998      -0.00000000       248.002014       1.57174325    
  0.330799997       1.87605906      -0.00000000       248.002014       1.57174325    
  0.390157014       1.86461902      -0.00000000       248.002014       1.57174325    
   9.06440020E-02   1.90284204      -0.00000000       249.763382       1.57175887    
  0.150970995       1.89900804      -0.00000000       249.763382       1.57175887    
   0.00000000       0.00000000       0.00000000       249.763382       1.57175887    
   3.02249994E-02   1.90476000      -0.00000000       249.763382       1.57175887    
 -0.150970995       1.89900804      -0.00000000       250.076736       1.57175207    
  -9.06440020E-02   1.90284204      -0.00000000       250.076736       1.57175207    
   0.00000000       0.00000000       0.00000000       250.076736       1.57175207    
 -0.211146995       1.89326203      -0.00000000       250.076736       1.57175207    
   0.00000000       0.00000000       0.00000000       250.088089       1.57175815    
  -9.06440020E-02   1.90284204      -0.00000000       250.088089       1.57175815    
  -3.02249994E-02   1.90476000      -0.00000000       250.088089       1.57175815    
   3.02249994E-02   1.90476000      -0.00000000       250.088089       1.57175815    
 -0.271109998       1.88560998      -0.00000000       249.809158       1.57173932    
 -0.211146995       1.89326203      -0.00000000       249.809158       1.57173932    
   0.00000000       0.00000000       0.00000000       249.809158       1.57173932    
 -0.330799997       1.87605906      -0.00000000       249.809158       1.57173932    
 -0.507632971       1.83611906      -0.00000000       249.219360       1.57168972    
 -0.449120998       1.85130095      -0.00000000       249.219360       1.57168972    
   0.00000000       0.00000000       0.00000000       249.219360       1.57168972    
 -0.565632999       1.81908906      -0.00000000       249.219360       1.57168972    
   0.00000000       0.00000000       0.00000000       249.491302       1.57171881    
 -0.449120998       1.85130095      -0.00000000       249.491302       1.57171881    
 -0.390157014       1.86461902      -0.00000000       249.491302       1.57171881    
 -0.330799997       1.87605906      -0.00000000       249.491302       1.57171881    
 -0.623063982       1.80022705      -0.00000000       249.241776       1.57165027    
 -0.565632999       1.81908906      -0.00000000       249.241776       1.57165027    
   0.00000000       0.00000000       0.00000000       249.241776       1.57165027    
 -0.679867983       1.77955198      -0.00000000       249.241776       1.57165027    
 -0.845947027       1.70686805      -0.00000000       251.191315       1.57153475    
 -0.791365981       1.73284900      -0.00000000       251.191315       1.57153475    
   0.00000000       0.00000000       0.00000000       251.191315       1.57153475    
 -0.899676025       1.67916906      -0.00000000       251.191315       1.57153475    
   0.00000000       0.00000000       0.00000000       249.901443       1.57159853    
 -0.791365981       1.73284900      -0.00000000       249.901443       1.57159853    
 -0.735987008       1.75708497      -0.00000000       249.901443       1.57159853    
 -0.679867983       1.77955198      -0.00000000       249.901443       1.57159853    
 -0.952499986       1.64977801      -0.00000000       253.137039       1.57145929    
 -0.899676025       1.67916906      -0.00000000       253.137039       1.57145929    
   0.00000000       0.00000000       0.00000000       253.137039       1.57145929    
  -1.00436401       1.61872697      -0.00000000       253.137039       1.57145929    
  -1.15368605       1.51592600      -0.00000000       257.762512       1.57128191    
  -1.10500801       1.55176699      -0.00000000       257.762512       1.57128191    
   0.00000000       0.00000000       0.00000000       257.762512       1.57128191    
  -1.20120299       1.47855902      -0.00000000       257.762512       1.57128191    
   0.00000000       0.00000000       0.00000000       255.454742       1.57137382    
  -1.10500801       1.55176699      -0.00000000       255.454742       1.57137382    
  -1.05521798       1.58604598      -0.00000000       255.454742       1.57137382    
  -1.00436401       1.61872697      -0.00000000       255.454742       1.57137382    
  -1.24750996       1.43970299      -0.00000000       258.669434       1.57119107    
  -1.20120299       1.47855902      -0.00000000       258.669434       1.57119107    
   0.00000000       0.00000000       0.00000000       258.669434       1.57119107    
  -1.29255998       1.39939702      -0.00000000       258.669434       1.57119107    
  -1.41972899       1.27019501      -0.00000000       236.477158       1.57112586    
  -1.37871301       1.31459999      -0.00000000       236.477158       1.57112586    
   0.00000000       0.00000000       0.00000000       236.477158       1.57112586    
  -1.45931494       1.22450995      -0.00000000       236.477158       1.57112586    
   0.00000000       0.00000000       0.00000000       253.527283       1.57112789    
  -1.37871301       1.31459999      -0.00000000       253.527283       1.57112789    
  -1.33631003       1.35768199      -0.00000000       253.527283       1.57112789    
  -1.29255998       1.39939702      -0.00000000       253.527283       1.57112789    
  -1.49743104       1.17759299      -0.00000000       213.400238       1.57115746    
  -1.45931494       1.22450995      -0.00000000       213.400238       1.57115746    
   0.00000000       0.00000000       0.00000000       213.400238       1.57115746    
  -1.53403997       1.12949002      -0.00000000       213.400238       1.57115746    
  -1.63445795      0.978555024      -0.00000000       166.050491       1.57123041    
  -1.60258806       1.02992105      -0.00000000       166.050491       1.57123041    
   0.00000000       0.00000000       0.00000000       166.050491       1.57123041    
  -1.66468298      0.926204979      -0.00000000       166.050491       1.57123041    
   0.00000000       0.00000000       0.00000000       189.478531       1.57119501    
  -1.60258806       1.02992105      -0.00000000       189.478531       1.57119501    
  -1.56910396       1.08024895      -0.00000000       189.478531       1.57119501    
  -1.53403997       1.12949002      -0.00000000       189.478531       1.57119501    
  -1.69323206      0.872922003      -0.00000000       143.486359       1.57125998    
  -1.66468298      0.926204979      -0.00000000       143.486359       1.57125998    
   0.00000000       0.00000000       0.00000000       143.486359       1.57125998    
  -1.72007501      0.818759024      -0.00000000       143.486359       1.57125998    
  -1.79011405      0.651548028      -0.00000000       101.600891       1.57128191    
  -1.76854098      0.708016992      -0.00000000       101.600891       1.57128191    
   0.00000000       0.00000000       0.00000000       101.600891       1.57128191    
  -1.80988598      0.594424009      -0.00000000       101.600891       1.57128191    
   0.00000000       0.00000000       0.00000000       122.037071       1.57127881    
  -1.76854098      0.708016992      -0.00000000       122.037071       1.57127881    
  -1.74518704      0.763773024      -0.00000000       122.037071       1.57127881    
  -1.72007501      0.818759024      -0.00000000       122.037071       1.57127881    
  -1.82783401      0.536701024      -0.00000000       82.0157700       1.57126367    
  -1.80988598      0.594424009      -0.00000000       82.0157700       1.57126367    
   0.00000000       0.00000000       0.00000000       82.0157700       1.57126367    
  -1.84394205      0.478437006      -0.00000000       82.0157700       1.57126367    
  -1.88107097      0.300992996      -0.00000000       44.5057297       1.57109952    
  -1.87057400      0.360523999      -0.00000000       44.5057297       1.57109952    
   0.00000000       0.00000000       0.00000000       44.5057297       1.57109952    
  -1.88967395      0.241159007      -0.00000000       44.5057297       1.57109952    
   0.00000000       0.00000000       0.00000000       63.0277977       1.57121253    
  -1.87057400      0.360523999      -0.00000000       63.0277977       1.57121253    
  -1.85819399      0.419692010      -0.00000000       63.0277977       1.57121253    
  -1.84394205      0.478437006      -0.00000000       63.0277977       1.57121253    
  -1.89637399      0.181081995      -0.00000000       26.2957172       1.57079577    
  -1.88967395      0.241159007      -0.00000000       26.2957172       1.57079577    
   0.00000000       0.00000000       0.00000000       26.2957172       1.57079577    
  -1.90116501      0.120823003      -0.00000000       26.2957172       1.57079577    
  -1.90404105      -6.04420006E-02  -0.00000000       9.95171165      -1.56804585    
  -1.90499997       0.00000000      -0.00000000       9.95171165      -1.56804585    
   0.00000000       0.00000000       0.00000000       9.95171165      -1.56804585    
  -1.90116501     -0.120823003      -0.00000000       9.95171165      -1.56804585    
   0.00000000       0.00000000       0.00000000       8.17169285       1.56911755    
  -1.90499997       0.00000000      -0.00000000       8.17169285       1.56911755    
  -1.90404105       6.04420006E-02  -0.00000000       8.17169285       1.56911755    
  -1.90116501      0.120823003      -0.00000000       8.17169285       1.56911755    
  -1.89637399     -0.181081995      -0.00000000       28.0637817      -1.56933630    
  -1.90116501     -0.120823003      -0.00000000       28.0637817      -1.56933630    
   0.00000000       0.00000000       0.00000000       28.0637817      -1.56933630    
  -1.88967395     -0.241159007      -0.00000000       28.0637817      -1.56933630    
  -1.85819399     -0.419692010      -0.00000000       65.0237350      -1.56976497    
  -1.87057400     -0.360523999      -0.00000000       65.0237350      -1.56976497    
   0.00000000       0.00000000       0.00000000       65.0237350      -1.56976497    
  -1.84394205     -0.478437006      -0.00000000       65.0237350      -1.56976497    
   0.00000000       0.00000000       0.00000000       46.3438873      -1.56962323    
  -1.87057400     -0.360523999      -0.00000000       46.3438873      -1.56962323    
  -1.88107097     -0.300992996      -0.00000000       46.3438873      -1.56962323    
  -1.88967395     -0.241159007      -0.00000000       46.3438873      -1.56962323    
  -1.82783401     -0.536701024      -0.00000000       84.1601105      -1.56985784    
  -1.84394205     -0.478437006      -0.00000000       84.1601105      -1.56985784    
   0.00000000       0.00000000       0.00000000       84.1601105      -1.56985784    
  -1.80988598     -0.594424009      -0.00000000       84.1601105      -1.56985784    
  -1.74518704     -0.763773024      -0.00000000       124.606834      -1.57000148    
  -1.76854098     -0.708016992      -0.00000000       124.606834      -1.57000148    
   0.00000000       0.00000000       0.00000000       124.606834      -1.57000148    
  -1.72007501     -0.818759024      -0.00000000       124.606834      -1.57000148    
   0.00000000       0.00000000       0.00000000       103.940414      -1.56993341    
  -1.76854098     -0.708016992      -0.00000000       103.940414      -1.56993341    
  -1.79011405     -0.651548028      -0.00000000       103.940414      -1.56993341    
  -1.80988598     -0.594424009      -0.00000000       103.940414      -1.56993341    
  -1.69323206     -0.872922003      -0.00000000       146.173553      -1.57006693    
  -1.72007501     -0.818759024      -0.00000000       146.173553      -1.57006693    
   0.00000000       0.00000000       0.00000000       146.173553      -1.57006693    
  -1.66468298     -0.926204979      -0.00000000       146.173553      -1.57006693    
  -1.56910396      -1.08024895      -0.00000000       191.857178      -1.57019401    
  -1.60258806      -1.02992105      -0.00000000       191.857178      -1.57019401    
   0.00000000       0.00000000       0.00000000       191.857178      -1.57019401    
  -1.53403997      -1.12949002      -0.00000000       191.857178      -1.57019401    
   0.00000000       0.00000000       0.00000000       168.695145      -1.57013226    
  -1.60258806      -1.02992105      -0.00000000       168.695145      -1.57013226    
  -1.63445795     -0.978555024      -0.00000000       168.695145      -1.57013226    
  -1.66468298     -0.926204979      -0.00000000       168.695145      -1.57013226    
  -1.49743104      -1.17759299      -0.00000000       215.235474      -1.57025135    
  -1.53403997      -1.12949002      -0.00000000       215.235474      -1.57025135    
   0.00000000       0.00000000       0.00000000       215.235474      -1.57025135    
  -1.45931494      -1.22450995      -0.00000000       215.235474      -1.57025135    
  -1.33631003      -1.35768199      -0.00000000       253.657761      -1.57030344    
  -1.37871301      -1.31459999      -0.00000000       253.657761      -1.57030344    
   0.00000000       0.00000000       0.00000000       253.657761      -1.57030344    
  -1.29255998      -1.39939702      -0.00000000       253.657761      -1.57030344    
   0.00000000       0.00000000       0.00000000       237.406662      -1.57029688    
  -1.37871301      -1.31459999      -0.00000000       237.406662      -1.57029688    
  -1.41972899      -1.27019501      -0.00000000       237.406662      -1.57029688    
  -1.45931494      -1.22450995      -0.00000000       237.406662      -1.57029688    
  -1.24750996      -1.43970299      -0.00000000       258.021454      -1.57023954    
  -1.29255998      -1.39939702      -0.00000000       258.021454      -1.57023954    
   0.00000000       0.00000000       0.00000000       258.021454      -1.57023954    
  -1.20120299      -1.47855902      -0.00000000       258.021454      -1.57023954    
  -1.05521798      -1.58604598      -0.00000000       253.594879      -1.57004666    
  -1.10500801      -1.55176699      -0.00000000       253.594879      -1.57004666    
   0.00000000       0.00000000       0.00000000       253.594879      -1.57004666    
  -1.00436401      -1.61872697      -0.00000000       253.594879      -1.57004666    
   0.00000000       0.00000000       0.00000000       256.309845      -1.57014358    
  -1.10500801      -1.55176699      -0.00000000       256.309845      -1.57014358    
  -1.15368605      -1.51592600      -0.00000000       256.309845      -1.57014358    
  -1.20120299      -1.47855902      -0.00000000       256.309845      -1.57014358    
 -0.952499986      -1.64977801      -0.00000000       251.171600      -1.56995833    
  -1.00436401      -1.61872697      -0.00000000       251.171600      -1.56995833    
   0.00000000       0.00000000       0.00000000       251.171600      -1.56995833    
 -0.899676025      -1.67916906      -0.00000000       251.171600      -1.56995833    
 -0.735987008      -1.75708497      -0.00000000       248.392700      -1.56981838    
 -0.791365981      -1.73284900      -0.00000000       248.392700      -1.56981838    
   0.00000000       0.00000000       0.00000000       248.392700      -1.56981838    
 -0.679867983      -1.77955198      -0.00000000       248.392700      -1.56981838    
   0.00000000       0.00000000       0.00000000       249.365189      -1.56988144    
 -0.791365981      -1.73284900      -0.00000000       249.365189      -1.56988144    
 -0.845947027      -1.70686805      -0.00000000       249.365189      -1.56988144    
 -0.899676025      -1.67916906      -0.00000000       249.365189      -1.56988144    
 -0.623063982      -1.80022705      -0.00000000       248.212463      -1.56976891    
 -0.679867983      -1.77955198      -0.00000000       248.212463      -1.56976891    
   0.00000000       0.00000000       0.00000000       248.212463      -1.56976891    
 -0.565632999      -1.81908906      -0.00000000       248.212463      -1.56976891    
 -0.390157014      -1.86461902      -0.00000000       249.080200      -1.56970513    
 -0.449120998      -1.85130095      -0.00000000       249.080200      -1.56970513    
   0.00000000       0.00000000       0.00000000       249.080200      -1.56970513    
 -0.330799997      -1.87605906      -0.00000000       249.080200      -1.56970513    
   0.00000000       0.00000000       0.00000000       248.542450      -1.56973183    
 -0.449120998      -1.85130095      -0.00000000       248.542450      -1.56973183    
 -0.507632971      -1.83611906      -0.00000000       248.542450      -1.56973183    
 -0.565632999      -1.81908906      -0.00000000       248.542450      -1.56973183    
 -0.271109998      -1.88560998      -0.00000000       249.651825      -1.56968641    
 -0.330799997      -1.87605906      -0.00000000       249.651825      -1.56968641    
   0.00000000       0.00000000       0.00000000       249.651825      -1.56968641    
 -0.211146995      -1.89326203      -0.00000000       249.651825      -1.56968641    
  -3.02249994E-02  -1.90476000      -0.00000000       250.208817      -1.56967008    
  -9.06440020E-02  -1.90284204      -0.00000000       250.208817      -1.56967008    
   0.00000000       0.00000000       0.00000000       250.208817      -1.56967008    
   3.02249994E-02  -1.90476000      -0.00000000       250.208817      -1.56967008    
   0.00000000       0.00000000       0.00000000       250.087479      -1.56967556    
  -9.06440020E-02  -1.90284204      -0.00000000       250.087479      -1.56967556    
 -0.150970995      -1.89900804      -0.00000000       250.087479      -1.56967556    
 -0.211146995      -1.89326203      -0.00000000       250.087479      -1.56967556    
   9.06440020E-02  -1.90284204      -0.00000000       249.925766      -1.56966972    
   3.02249994E-02  -1.90476000      -0.00000000       249.925766      -1.56966972    
   0.00000000       0.00000000       0.00000000       249.925766      -1.56966972    
  0.150970995      -1.89900804      -0.00000000       249.925766      -1.56966972    
  0.330799997      -1.87605906      -0.00000000       248.461517      -1.56968677    
  0.271109998      -1.88560998      -0.00000000       248.461517      -1.56968677    
   0.00000000       0.00000000       0.00000000       248.461517      -1.56968677    
  0.390157014      -1.86461902      -0.00000000       248.461517      -1.56968677    
   0.00000000       0.00000000       0.00000000       249.320404      -1.56967509    
  0.271109998      -1.88560998      -0.00000000       249.320404      -1.56967509    
  0.211146995      -1.89326203      -0.00000000       249.320404      -1.56967509    
  0.150970995      -1.89900804      -0.00000000       249.320404      -1.56967509    
  0.449120998      -1.85130095      -0.00000000       247.541214      -1.56970572    
  0.390157014      -1.86461902      -0.00000000       247.541214      -1.56970572    
   0.00000000       0.00000000       0.00000000       247.541214      -1.56970572    
  0.507632971      -1.83611906      -0.00000000       247.541214      -1.56970572    
  0.679867983      -1.77955198      -0.00000000       246.045639      -1.56977296    
  0.623063982      -1.80022705      -0.00000000       246.045639      -1.56977296    
   0.00000000       0.00000000       0.00000000       246.045639      -1.56977296    
  0.735987008      -1.75708497      -0.00000000       246.045639      -1.56977296    
   0.00000000       0.00000000       0.00000000       246.654083      -1.56973410    
  0.623063982      -1.80022705      -0.00000000       246.654083      -1.56973410    
  0.565632999      -1.81908906      -0.00000000       246.654083      -1.56973410    
  0.507632971      -1.83611906      -0.00000000       246.654083      -1.56973410    
  0.791365981      -1.73284900      -0.00000000       246.050079      -1.56982446    
  0.735987008      -1.75708497      -0.00000000       246.050079      -1.56982446    
   0.00000000       0.00000000       0.00000000       246.050079      -1.56982446    
  0.845947027      -1.70686805      -0.00000000       246.050079      -1.56982446    
   1.00436401      -1.61872697      -0.00000000       247.903870      -1.56996536    
  0.952499986      -1.64977801      -0.00000000       247.903870      -1.56996536    
   0.00000000       0.00000000       0.00000000       247.903870      -1.56996536    
   1.05521798      -1.58604598      -0.00000000       247.903870      -1.56996536    
   0.00000000       0.00000000       0.00000000       246.656876      -1.56988835    
  0.952499986      -1.64977801      -0.00000000       246.656876      -1.56988835    
  0.899676025      -1.67916906      -0.00000000       246.656876      -1.56988835    
  0.845947027      -1.70686805      -0.00000000       246.656876      -1.56988835    
   1.10500801      -1.55176699      -0.00000000       249.510635      -1.57005262    
   1.05521798      -1.58604598      -0.00000000       249.510635      -1.57005262    
   0.00000000       0.00000000       0.00000000       249.510635      -1.57005262    
   1.15368605      -1.51592600      -0.00000000       249.510635      -1.57005262    
   1.29255998      -1.39939702      -0.00000000       251.302048      -1.57023907    
   1.24750996      -1.43970299      -0.00000000       251.302048      -1.57023907    
   0.00000000       0.00000000       0.00000000       251.302048      -1.57023907    
   1.33631003      -1.35768199      -0.00000000       251.302048      -1.57023907    
   0.00000000       0.00000000       0.00000000       251.105957      -1.57014680    
   1.24750996      -1.43970299      -0.00000000       251.105957      -1.57014680    
   1.20120299      -1.47855902      -0.00000000       251.105957      -1.57014680    