 VARIABLES="X" "Y" "Z" "abs(p) (Pa)" "angle(p) (rad)"
ZONE N=    802,E =     800, F=FEPOINT, ET=QUADRILATERAL
   1.90499997       0.00000000      -0.00000000       1479.76147       1.57324100    
   1.90404105      -6.04420006E-02  -0.00000000       1479.76147       1.57324100    
   0.00000000       0.00000000       0.00000000       1479.76147       1.57324100    
   1.90404105       6.04420006E-02  -0.00000000       1479.76147       1.57324100    
   1.88967395      0.241159007      -0.00000000       1477.90552       1.57323837    
   1.89637399      0.181081995      -0.00000000       1477.90552       1.57323837    
   0.00000000       0.00000000       0.00000000       1477.90552       1.57323837    
   1.88107097      0.300992996      -0.00000000       1477.90552       1.57323837    
   0.00000000       0.00000000       0.00000000       1479.53516       1.57323980    
   1.89637399      0.181081995      -0.00000000       1479.53516       1.57323980    
   1.90116501      0.120823003      -0.00000000       1479.53516       1.57323980    
   1.90404105       6.04420006E-02  -0.00000000       1479.53516       1.57323980    
   1.87057400      0.360523999      -0.00000000       1475.37891       1.57323539    
   1.88107097      0.300992996      -0.00000000       1475.37891       1.57323539    
   0.00000000       0.00000000       0.00000000       1475.37891       1.57323539    
   1.85819399      0.419692010      -0.00000000       1475.37891       1.57323539    
   1.80988598      0.594424009      -0.00000000       1475.02832       1.57321167    
   1.82783401      0.536701024      -0.00000000       1475.02832       1.57321167    
   0.00000000       0.00000000       0.00000000       1475.02832       1.57321167    
   1.79011405      0.651548028      -0.00000000       1475.02832       1.57321167    
   0.00000000       0.00000000       0.00000000       1474.10315       1.57322729    
   1.82783401      0.536701024      -0.00000000       1474.10315       1.57322729    
   1.84394205      0.478437006      -0.00000000       1474.10315       1.57322729    
   1.85819399      0.419692010      -0.00000000       1474.10315       1.57322729    
   1.76854098      0.708016992      -0.00000000       1479.15613       1.57318723    
   1.79011405      0.651548028      -0.00000000       1479.15613       1.57318723    
   0.00000000       0.00000000       0.00000000       1479.15613       1.57318723    
   1.74518704      0.763773024      -0.00000000       1479.15613       1.57318723    
   1.66468298      0.926204979      -0.00000000       1499.90222       1.57310724    
   1.69323206      0.872922003      -0.00000000       1499.90222       1.57310724    
   0.00000000       0.00000000       0.00000000       1499.90222       1.57310724    
   1.63445795      0.978555024      -0.00000000       1499.90222       1.57310724    
   0.00000000       0.00000000       0.00000000       1487.41858       1.57315218    
   1.69323206      0.872922003      -0.00000000       1487.41858       1.57315218    
   1.72007501      0.818759024      -0.00000000       1487.41858       1.57315218    
   1.74518704      0.763773024      -0.00000000       1487.41858       1.57315218    
   1.60258806       1.02992105      -0.00000000       1514.90796       1.57305515    
   1.63445795      0.978555024      -0.00000000       1514.90796       1.57305515    
   0.00000000       0.00000000       0.00000000       1514.90796       1.57305515    
   1.56910396       1.08024895      -0.00000000       1514.90796       1.57305515    
   1.45931494       1.22450995      -0.00000000       1536.24207       1.57295907    
   1.49743104       1.17759299      -0.00000000       1536.24207       1.57295907    
   0.00000000       0.00000000       0.00000000       1536.24207       1.57295907    
   1.41972899       1.27019501      -0.00000000       1536.24207       1.57295907    
   0.00000000       0.00000000       0.00000000       1529.20190       1.57300210    
   1.49743104       1.17759299      -0.00000000       1529.20190       1.57300210    
   1.53403997       1.12949002      -0.00000000       1529.20190       1.57300210    
   1.56910396       1.08024895      -0.00000000       1529.20190       1.57300210    
   1.37871301       1.31459999      -0.00000000       1508.19678       1.57297277    
   1.41972899       1.27019501      -0.00000000       1508.19678       1.57297277    
   0.00000000       0.00000000       0.00000000       1508.19678       1.57297277    
   1.33631003       1.35768199      -0.00000000       1508.19678       1.57297277    
   1.20120299       1.47855902      -0.00000000       1275.55249       1.57336044    
   1.24750996       1.43970299      -0.00000000       1275.55249       1.57336044    
   0.00000000       0.00000000       0.00000000       1275.55249       1.57336044    
   1.15368605       1.51592600      -0.00000000       1275.55249       1.57336044    
   0.00000000       0.00000000       0.00000000       1409.65320       1.57311654    
   1.24750996       1.43970299      -0.00000000       1409.65320       1.57311654    
   1.29255998       1.39939702      -0.00000000       1409.65320       1.57311654    
   1.33631003       1.35768199      -0.00000000       1409.65320       1.57311654    
   1.10500801       1.55176699      -0.00000000       1136.38733       1.57367289    
   1.15368605       1.51592600      -0.00000000       1136.38733       1.57367289    
   0.00000000       0.00000000       0.00000000       1136.38733       1.57367289    
   1.05521798       1.58604598      -0.00000000       1136.38733       1.57367289    
  0.899676025       1.67916906      -0.00000000       868.029724       1.57454276    
  0.952499986       1.64977801      -0.00000000       868.029724       1.57454276    
   0.00000000       0.00000000       0.00000000       868.029724       1.57454276    
  0.845947027       1.70686805      -0.00000000       868.029724       1.57454276    
   0.00000000       0.00000000       0.00000000       999.193420       1.57406211    
  0.952499986       1.64977801      -0.00000000       999.193420       1.57406211    
   1.00436401       1.61872697      -0.00000000       999.193420       1.57406211    
   1.05521798       1.58604598      -0.00000000       999.193420       1.57406211    
  0.791365981       1.73284900      -0.00000000       743.304016       1.57515037    
  0.845947027       1.70686805      -0.00000000       743.304016       1.57515037    
   0.00000000       0.00000000       0.00000000       743.304016       1.57515037    
  0.735987008       1.75708497      -0.00000000       743.304016       1.57515037    
  0.565632999       1.81908906      -0.00000000       510.940277       1.57704556    
  0.623063982       1.80022705      -0.00000000       510.940277       1.57704556    
   0.00000000       0.00000000       0.00000000       510.940277       1.57704556    
  0.507632971       1.83611906      -0.00000000       510.940277       1.57704556    
   0.00000000       0.00000000       0.00000000       624.590088       1.57594597    
  0.623063982       1.80022705      -0.00000000       624.590088       1.57594597    
  0.679867983       1.77955198      -0.00000000       624.590088       1.57594597    
  0.735987008       1.75708497      -0.00000000       624.590088       1.57594597    
  0.449120998       1.85130095      -0.00000000       400.965149       1.57869458    
  0.507632971       1.83611906      -0.00000000       400.965149       1.57869458    
   0.00000000       0.00000000       0.00000000       400.965149       1.57869458    
  0.390157014       1.86461902      -0.00000000       400.965149       1.57869458    
  0.211146995       1.89326203      -0.00000000       187.526031       1.58738267    
  0.271109998       1.88560998      -0.00000000       187.526031       1.58738267    
   0.00000000       0.00000000       0.00000000       187.526031       1.58738267    
  0.150970995       1.89900804      -0.00000000       187.526031       1.58738267    
   0.00000000       0.00000000       0.00000000       293.562775       1.58148932    
  0.271109998       1.88560998      -0.00000000       293.562775       1.58148932    
  0.330799997       1.87605906      -0.00000000       293.562775       1.58148932    
  0.390157014       1.86461902      -0.00000000       293.562775       1.58148932    
   9.06440020E-02   1.90284204      -0.00000000       82.9171829       1.60795391    
  0.150970995       1.89900804      -0.00000000       82.9171829       1.60795391    
   0.00000000       0.00000000       0.00000000       82.9171829       1.60795391    
   3.02249994E-02   1.90476000      -0.00000000       82.9171829       1.60795391    
 -0.150970995       1.89900804      -0.00000000       126.315872      -1.59470510    
  -9.06440020E-02   1.90284204      -0.00000000       126.315872      -1.59470510    
   0.00000000       0.00000000       0.00000000       126.315872      -1.59470510    
 -0.211146995       1.89326203      -0.00000000       126.315872      -1.59470510    
   0.00000000       0.00000000       0.00000000       21.5835285      -1.71257305    
  -9.06440020E-02   1.90284204      -0.00000000       21.5835285      -1.71257305    
  -3.02249994E-02   1.90476000      -0.00000000       21.5835285      -1.71257305    
   3.02249994E-02   1.90476000      -0.00000000       21.5835285      -1.71257305    
 -0.271109998       1.88560998      -0.00000000       232.377090      -1.58366358    
 -0.211146995       1.89326203      -0.00000000       232.377090      -1.58366358    
   0.00000000       0.00000000       0.00000000       232.377090      -1.58366358    
 -0.330799997       1.87605906      -0.00000000       232.377090      -1.58366358    
 -0.507632971       1.83611906      -0.00000000       450.327698      -1.57731175    
 -0.449120998       1.85130095      -0.00000000       450.327698      -1.57731175    
   0.00000000       0.00000000       0.00000000       450.327698      -1.57731175    
 -0.565632999       1.81908906      -0.00000000       450.327698      -1.57731175    
   0.00000000       0.00000000       0.00000000       339.842468      -1.57951057    
 -0.449120998       1.85130095      -0.00000000       339.842468      -1.57951057    
 -0.390157014       1.86461902      -0.00000000       339.842468      -1.57951057    
 -0.330799997       1.87605906      -0.00000000       339.842468      -1.57951057    
 -0.623063982       1.80022705      -0.00000000       564.593750      -1.57594919    
 -0.565632999       1.81908906      -0.00000000       564.593750      -1.57594919    
   0.00000000       0.00000000       0.00000000       564.593750      -1.57594919    
 -0.679867983       1.77955198      -0.00000000       564.593750      -1.57594919    
 -0.845947027       1.70686805      -0.00000000       808.595093      -1.57434356    
 -0.791365981       1.73284900      -0.00000000       808.595093      -1.57434356    
   0.00000000       0.00000000       0.00000000       808.595093      -1.57434356    
 -0.899676025       1.67916906      -0.00000000       808.595093      -1.57434356    
   0.00000000       0.00000000       0.00000000       683.698914      -1.57501888    
 -0.791365981       1.73284900      -0.00000000       683.698914      -1.57501888    
 -0.735987008       1.75708497      -0.00000000       683.698914      -1.57501888    
 -0.679867983       1.77955198      -0.00000000       683.698914      -1.57501888    
 -0.952499986       1.64977801      -0.00000000       939.065247      -1.57383490    
 -0.899676025       1.67916906      -0.00000000       939.065247      -1.57383490    
   0.00000000       0.00000000       0.00000000       939.065247      -1.57383490    
  -1.00436401       1.61872697      -0.00000000       939.065247      -1.57383490    
  -1.15368605       1.51592600      -0.00000000       1207.39551      -1.57314372    
  -1.10500801       1.55176699      -0.00000000       1207.39551      -1.57314372    
   0.00000000       0.00000000       0.00000000       1207.39551      -1.57314372    
  -1.20120299       1.47855902      -0.00000000       1207.39551      -1.57314372    
   0.00000000       0.00000000       0.00000000       1073.14832      -1.57344496    
  -1.10500801       1.55176699      -0.00000000       1073.14832      -1.57344496    
  -1.05521798       1.58604598      -0.00000000       1073.14832      -1.57344496    
  -1.00436401       1.61872697      -0.00000000       1073.14832      -1.57344496    
  -1.24750996       1.43970299      -0.00000000       1335.34534      -1.57291341    
  -1.20120299       1.47855902      -0.00000000       1335.34534      -1.57291341    
   0.00000000       0.00000000       0.00000000       1335.34534      -1.57291341    
  -1.29255998       1.39939702      -0.00000000       1335.34534      -1.57291341    
  -1.41972899       1.27019501      -0.00000000       1456.12573      -1.57269990    
  -1.37871301       1.31459999      -0.00000000       1456.12573      -1.57269990    
   0.00000000       0.00000000       0.00000000       1456.12573      -1.57269990    
  -1.45931494       1.22450995      -0.00000000       1456.12573      -1.57269990    
   0.00000000       0.00000000       0.00000000       1429.75757      -1.57276213    
  -1.37871301       1.31459999      -0.00000000       1429.75757      -1.57276213    
  -1.33631003       1.35768199      -0.00000000       1429.75757      -1.57276213    
  -1.29255998       1.39939702      -0.00000000       1429.75757      -1.57276213    
  -1.49743104       1.17759299      -0.00000000       1447.82117      -1.57267773    
  -1.45931494       1.22450995      -0.00000000       1447.82117      -1.57267773    
   0.00000000       0.00000000       0.00000000       1447.82117      -1.57267773    
  -1.53403997       1.12949002      -0.00000000       1447.82117      -1.57267773    
  -1.63445795      0.978555024      -0.00000000       1421.04443      -1.57265115    
  -1.60258806       1.02992105      -0.00000000       1421.04443      -1.57265115    
   0.00000000       0.00000000       0.00000000       1421.04443      -1.57265115    
  -1.66468298      0.926204979      -0.00000000       1421.04443      -1.57265115    
   0.00000000       0.00000000       0.00000000       1433.88110      -1.57266366    
  -1.60258806       1.02992105      -0.00000000       1433.88110      -1.57266366    
  -1.56910396       1.08024895      -0.00000000       1433.88110      -1.57266366    
  -1.53403997       1.12949002      -0.00000000       1433.88110      -1.57266366    
  -1.69323206      0.872922003      -0.00000000       1412.52686      -1.57263660    
  -1.66468298      0.926204979      -0.00000000       1412.52686      -1.57263660    
   0.00000000       0.00000000       0.00000000       1412.52686      -1.57263660    
  -1.72007501      0.818759024      -0.00000000       1412.52686      -1.57263660    
  -1.79011405      0.651548028      -0.00000000       1408.40247      -1.57260203    
  -1.76854098      0.708016992      -0.00000000       1408.40247      -1.57260203    
   0.00000000       0.00000000       0.00000000       1408.40247      -1.57260203    
  -1.80988598      0.594424009      -0.00000000       1408.40247      -1.57260203    
   0.00000000       0.00000000       0.00000000       1408.44910      -1.57262015    
  -1.76854098      0.708016992      -0.00000000       1408.44910      -1.57262015    
  -1.74518704      0.763773024      -0.00000000       1408.44910      -1.57262015    
  -1.72007501      0.818759024      -0.00000000       1408.44910      -1.57262015    
  -1.82783401      0.536701024      -0.00000000       1411.30713      -1.57258427    
  -1.80988598      0.594424009      -0.00000000       1411.30713      -1.57258427    
   0.00000000       0.00000000       0.00000000       1411.30713      -1.57258427    
  -1.84394205      0.478437006      -0.00000000       1411.30713      -1.57258427    
  -1.88107097      0.300992996      -0.00000000       1421.06226      -1.57255292    
  -1.87057400      0.360523999      -0.00000000       1421.06226      -1.57255292    
   0.00000000       0.00000000       0.00000000       1421.06226      -1.57255292    
  -1.88967395      0.241159007      -0.00000000       1421.06226      -1.57255292    
   0.00000000       0.00000000       0.00000000       1416.01819      -1.57256722    
  -1.87057400      0.360523999      -0.00000000       1416.01819      -1.57256722    
  -1.85819399      0.419692010      -0.00000000       1416.01819      -1.57256722    
  -1.84394205      0.478437006      -0.00000000       1416.01819      -1.57256722    
  -1.89637399      0.181081995      -0.00000000       1424.75391      -1.57254314    
  -1.88967395      0.241159007      -0.00000000       1424.75391      -1.57254314    
   0.00000000       0.00000000       0.00000000       1424.75391      -1.57254314    
  -1.90116501      0.120823003      -0.00000000       1424.75391      -1.57254314    
  -1.90404105      -6.04420006E-02  -0.00000000       1427.29651      -1.57253754    
  -1.90499997       0.00000000      -0.00000000       1427.29651      -1.57253754    
   0.00000000       0.00000000       0.00000000       1427.29651      -1.57253754    
  -1.90116501     -0.120823003      -0.00000000       1427.29651      -1.57253754    
   0.00000000       0.00000000       0.00000000       1426.99255      -1.57253790    
  -1.90499997       0.00000000      -0.00000000       1426.99255      -1.57253790    
  -1.90404105       6.04420006E-02  -0.00000000       1426.99255      -1.57253790    
  -1.90116501      0.120823003      -0.00000000       1426.99255      -1.57253790    
  -1.89637399     -0.181081995      -0.00000000       1425.81311      -1.57254207    
  -1.90116501     -0.120823003      -0.00000000       1425.81311      -1.57254207    
   0.00000000       0.00000000       0.00000000       1425.81311      -1.57254207    
  -1.88967395     -0.241159007      -0.00000000       1425.81311      -1.57254207    
  -1.85819399     -0.419692010      -0.00000000       1419.08301      -1.57256401    
  -1.87057400     -0.360523999      -0.00000000       1419.08301      -1.57256401    
   0.00000000       0.00000000       0.00000000       1419.08301      -1.57256401    
  -1.84394205     -0.478437006      -0.00000000       1419.08301      -1.57256401    
   0.00000000       0.00000000       0.00000000       1422.80286      -1.57255125    
  -1.87057400     -0.360523999      -0.00000000       1422.80286      -1.57255125    
  -1.88107097     -0.300992996      -0.00000000       1422.80286      -1.57255125    
  -1.88967395     -0.241159007      -0.00000000       1422.80286      -1.57255125    
  -1.82783401     -0.536701024      -0.00000000       1416.55066      -1.57257855    
  -1.84394205     -0.478437006      -0.00000000       1416.55066      -1.57257855    
   0.00000000       0.00000000       0.00000000       1416.55066      -1.57257855    
  -1.80988598     -0.594424009      -0.00000000       1416.55066      -1.57257855    
  -1.74518704     -0.763773024      -0.00000000       1417.90576      -1.57260990    
  -1.76854098     -0.708016992      -0.00000000       1417.90576      -1.57260990    
   0.00000000       0.00000000       0.00000000       1417.90576      -1.57260990    
  -1.72007501     -0.818759024      -0.00000000       1417.90576      -1.57260990    
   0.00000000       0.00000000       0.00000000       1415.81055      -1.57259440    
  -1.76854098     -0.708016992      -0.00000000       1415.81055      -1.57259440    
  -1.79011405     -0.651548028      -0.00000000       1415.81055      -1.57259440    
  -1.80988598     -0.594424009      -0.00000000       1415.81055      -1.57259440    
  -1.69323206     -0.872922003      -0.00000000       1423.84827      -1.57262409    
  -1.72007501     -0.818759024      -0.00000000       1423.84827      -1.57262409    
   0.00000000       0.00000000       0.00000000       1423.84827      -1.57262409    
  -1.66468298     -0.926204979      -0.00000000       1423.84827      -1.57262409    
  -1.56910396      -1.08024895      -0.00000000       1445.77832      -1.57265055    
  -1.60258806      -1.02992105      -0.00000000       1445.77832      -1.57265055    
   0.00000000       0.00000000       0.00000000       1445.77832      -1.57265055    
  -1.53403997      -1.12949002      -0.00000000       1445.77832      -1.57265055    
   0.00000000       0.00000000       0.00000000       1433.61353      -1.57263720    
  -1.60258806      -1.02992105      -0.00000000       1433.61353      -1.57263720    
  -1.63445795     -0.978555024      -0.00000000       1433.61353      -1.57263720    
  -1.66468298     -0.926204979      -0.00000000       1433.61353      -1.57263720    
  -1.49743104      -1.17759299      -0.00000000       1457.03687      -1.57266736    
  -1.53403997      -1.12949002      -0.00000000       1457.03687      -1.57266736    
   0.00000000       0.00000000       0.00000000       1457.03687      -1.57266736    
  -1.45931494      -1.22450995      -0.00000000       1457.03687      -1.57266736    
  -1.33631003      -1.35768199      -0.00000000       1430.28809      -1.57276165    
  -1.37871301      -1.31459999      -0.00000000       1430.28809      -1.57276165    
   0.00000000       0.00000000       0.00000000       1430.28809      -1.57276165    
  -1.29255998      -1.39939702      -0.00000000       1430.28809      -1.57276165    
   0.00000000       0.00000000       0.00000000       1460.93762      -1.57269454    
  -1.37871301      -1.31459999      -0.00000000       1460.93762      -1.57269454    
  -1.41972899      -1.27019501      -0.00000000       1460.93762      -1.57269454    
  -1.45931494      -1.22450995      -0.00000000       1460.93762      -1.57269454    
  -1.24750996      -1.43970299      -0.00000000       1331.25916      -1.57291961    
  -1.29255998      -1.39939702      -0.00000000       1331.25916      -1.57291961    
   0.00000000       0.00000000       0.00000000       1331.25916      -1.57291961    
  -1.20120299      -1.47855902      -0.00000000       1331.25916      -1.57291961    
  -1.05521798      -1.58604598      -0.00000000       1060.12354      -1.57347596    
  -1.10500801      -1.55176699      -0.00000000       1060.12354      -1.57347596    
   0.00000000       0.00000000       0.00000000       1060.12354      -1.57347596    
  -1.00436401      -1.61872697      -0.00000000       1060.12354      -1.57347596    
   0.00000000       0.00000000       0.00000000       1198.13904      -1.57316101    
  -1.10500801      -1.55176699      -0.00000000       1198.13904      -1.57316101    
  -1.15368605      -1.51592600      -0.00000000       1198.13904      -1.57316101    
  -1.20120299      -1.47855902      -0.00000000       1198.13904      -1.57316101    
 -0.952499986      -1.64977801      -0.00000000       923.982056      -1.57388258    
  -1.00436401      -1.61872697      -0.00000000       923.982056      -1.57388258    
   0.00000000       0.00000000       0.00000000       923.982056      -1.57388258    
 -0.899676025      -1.67916906      -0.00000000       923.982056      -1.57388258    
 -0.735987008      -1.75708497      -0.00000000       669.862793      -1.57510424    
 -0.791365981      -1.73284900      -0.00000000       669.862793      -1.57510424    
   0.00000000       0.00000000       0.00000000       669.862793      -1.57510424    
 -0.679867983      -1.77955198      -0.00000000       669.862793      -1.57510424    
   0.00000000       0.00000000       0.00000000       793.769043      -1.57440770    
 -0.791365981      -1.73284900      -0.00000000       793.769043      -1.57440770    
 -0.845947027      -1.70686805      -0.00000000       793.769043      -1.57440770    
 -0.899676025      -1.67916906      -0.00000000       793.769043      -1.57440770    
 -0.623063982      -1.80022705      -0.00000000       551.794922      -1.57606685    
 -0.679867983      -1.77955198      -0.00000000       551.794922      -1.57606685    
   0.00000000       0.00000000       0.00000000       551.794922      -1.57606685    
 -0.565632999      -1.81908906      -0.00000000       551.794922      -1.57606685    
 -0.390157014      -1.86461902      -0.00000000       329.148956      -1.57979178    
 -0.449120998      -1.85130095      -0.00000000       329.148956      -1.57979178    
   0.00000000       0.00000000       0.00000000       329.148956      -1.57979178    
 -0.330799997      -1.87605906      -0.00000000       329.148956      -1.57979178    
   0.00000000       0.00000000       0.00000000       438.673431      -1.57748377    
 -0.449120998      -1.85130095      -0.00000000       438.673431      -1.57748377    
 -0.507632971      -1.83611906      -0.00000000       438.673431      -1.57748377    
 -0.565632999      -1.81908906      -0.00000000       438.673431      -1.57748377    
 -0.271109998      -1.88560998      -0.00000000       222.133011      -1.58425617    
 -0.330799997      -1.87605906      -0.00000000       222.133011      -1.58425617    
   0.00000000       0.00000000       0.00000000       222.133011      -1.58425617    
 -0.211146995      -1.89326203      -0.00000000       222.133011      -1.58425617    
  -3.02249994E-02  -1.90476000      -0.00000000       12.2371721      -1.82267427    
  -9.06440020E-02  -1.90284204      -0.00000000       12.2371721      -1.82267427    
   0.00000000       0.00000000       0.00000000       12.2371721      -1.82267427    
   3.02249994E-02  -1.90476000      -0.00000000       12.2371721      -1.82267427    
   0.00000000       0.00000000       0.00000000       116.390198      -1.59674323    
  -9.06440020E-02  -1.90284204      -0.00000000       116.390198      -1.59674323    
 -0.150970995      -1.89900804      -0.00000000       116.390198      -1.59674323    
 -0.211146995      -1.89326203      -0.00000000       116.390198      -1.59674323    
   9.06440020E-02  -1.90284204      -0.00000000       92.4758606       1.60410821    
   3.02249994E-02  -1.90476000      -0.00000000       92.4758606       1.60410821    
   0.00000000       0.00000000       0.00000000       92.4758606       1.60410821    
  0.150970995      -1.89900804      -0.00000000       92.4758606       1.60410821    
  0.330799997      -1.87605906      -0.00000000       304.040161       1.58112025    
  0.271109998      -1.88560998      -0.00000000       304.040161       1.58112025    
   0.00000000       0.00000000       0.00000000       304.040161       1.58112025    
  0.390157014      -1.86461902      -0.00000000       304.040161       1.58112025    
   0.00000000       0.00000000       0.00000000       197.601624       1.58653486    
  0.271109998      -1.88560998      -0.00000000       197.601624       1.58653486    
  0.211146995      -1.89326203      -0.00000000       197.601624       1.58653486    
  0.150970995      -1.89900804      -0.00000000       197.601624       1.58653486    
  0.449120998      -1.85130095      -0.00000000       412.002991       1.57848144    
  0.390157014      -1.86461902      -0.00000000       412.002991       1.57848144    
   0.00000000       0.00000000       0.00000000       412.002991       1.57848144    
  0.507632971      -1.83611906      -0.00000000       412.002991       1.57848144    
  0.679867983      -1.77955198      -0.00000000       638.016174       1.57583523    
  0.623063982      -1.80022705      -0.00000000       638.016174       1.57583523    
   0.00000000       0.00000000       0.00000000       638.016174       1.57583523    
  0.735987008      -1.75708497      -0.00000000       638.016174       1.57583523    
   0.00000000       0.00000000       0.00000000       523.079285       1.57689846    
  0.623063982      -1.80022705      -0.00000000       523.079285       1.57689846    
  0.565632999      -1.81908906      -0.00000000       523.079285       1.57689846    
  0.507632971      -1.83611906      -0.00000000       523.079285       1.57689846    
  0.791365981      -1.73284900      -0.00000000       757.987488       1.57506335    
  0.735987008      -1.75708497      -0.00000000       757.987488       1.57506335    
   0.00000000       0.00000000       0.00000000       757.987488       1.57506335    
  0.845947027      -1.70686805      -0.00000000       757.987488       1.57506335    
   1.00436401      -1.61872697      -0.00000000       1015.27521       1.57400775    
  0.952499986      -1.64977801      -0.00000000       1015.27521       1.57400775    
   0.00000000       0.00000000       0.00000000       1015.27521       1.57400775    
   1.05521798      -1.58604598      -0.00000000       1015.27521       1.57400775    
   0.00000000       0.00000000       0.00000000       883.793762       1.57447338    
  0.952499986      -1.64977801      -0.00000000       883.793762       1.57447338    
  0.899676025      -1.67916906      -0.00000000       883.793762       1.57447338    
  0.845947027      -1.70686805      -0.00000000       883.793762       1.57447338    
   1.10500801      -1.55176699      -0.00000000       1150.45874       1.57363582    
   1.05521798      -1.58604598      -0.00000000       1150.45874       1.57363582    
   0.00000000       0.00000000       0.00000000       1150.45874       1.57363582    
   1.15368605      -1.51592600      -0.00000000       1150.45874       1.57363582    
   1.29255998      -1.39939702      -0.00000000       1414.70898       1.57310772    
   1.24750996      -1.43970299      -0.00000000       1414.70898       1.57310772    
   0.00000000       0.00000000       0.00000000       1414.70898       1.57310772    
   1.33631003      -1.35768199      -0.00000000       1414.70898       1.57310772    
   0.00000000       0.00000000       0.00000000       1285.84253       1.57333875    
   1.24750996      -1.43970299      -0.00000000       1285.84253       1.57333875    
   1.20120299      -1.47855902      -0.00000000       1285.84253       1.57333875    