 VARIABLES="X" "Y" "Z" "abs(p) (Pa)" "angle(p) (rad)"
ZONE N=    802,E =     800, F=FEPOINT, ET=QUADRILATERAL
   1.90499997       0.00000000      -0.00000000       2.40517020       1.90161920    
   1.90404105      -6.04420006E-02  -0.00000000       2.40517020       1.90161920    
   0.00000000       0.00000000       0.00000000       2.40517020       1.90161920    
   1.90404105       6.04420006E-02  -0.00000000       2.40517020       1.90161920    
   1.88967395      0.241159007      -0.00000000       2.42058110       1.89925289    
   1.89637399      0.181081995      -0.00000000       2.42058110       1.89925289    
   0.00000000       0.00000000       0.00000000       2.42058110       1.89925289    
   1.88107097      0.300992996      -0.00000000       2.42058110       1.89925289    
   0.00000000       0.00000000       0.00000000       2.40960741       1.90093827    
   1.89637399      0.181081995      -0.00000000       2.40960741       1.90093827    
   1.90116501      0.120823003      -0.00000000       2.40960741       1.90093827    
   1.90404105       6.04420006E-02  -0.00000000       2.40960741       1.90093827    
   1.87057400      0.360523999      -0.00000000       2.44045258       1.89624715    
   1.88107097      0.300992996      -0.00000000       2.44045258       1.89624715    
   0.00000000       0.00000000       0.00000000       2.44045258       1.89624715    
   1.85819399      0.419692010      -0.00000000       2.44045258       1.89624715    
   1.80988598      0.594424009      -0.00000000       2.52760267       1.88369954    
   1.82783401      0.536701024      -0.00000000       2.52760267       1.88369954    
   0.00000000       0.00000000       0.00000000       2.52760267       1.88369954    
   1.79011405      0.651548028      -0.00000000       2.52760267       1.88369954    
   0.00000000       0.00000000       0.00000000       2.47516203       1.89113092    
   1.82783401      0.536701024      -0.00000000       2.47516203       1.89113092    
   1.84394205      0.478437006      -0.00000000       2.47516203       1.89113092    
   1.85819399      0.419692010      -0.00000000       2.47516203       1.89113092    
   1.76854098      0.708016992      -0.00000000       2.60199213       1.87368906    
   1.79011405      0.651548028      -0.00000000       2.60199213       1.87368906    
   0.00000000       0.00000000       0.00000000       2.60199213       1.87368906    
   1.74518704      0.763773024      -0.00000000       2.60199213       1.87368906    
   1.66468298      0.926204979      -0.00000000       2.82181001       1.84720874    
   1.69323206      0.872922003      -0.00000000       2.82181001       1.84720874    
   0.00000000       0.00000000       0.00000000       2.82181001       1.84720874    
   1.63445795      0.978555024      -0.00000000       2.82181001       1.84720874    
   0.00000000       0.00000000       0.00000000       2.70080614       1.86126125    
   1.69323206      0.872922003      -0.00000000       2.70080614       1.86126125    
   1.72007501      0.818759024      -0.00000000       2.70080614       1.86126125    
   1.74518704      0.763773024      -0.00000000       2.70080614       1.86126125    
   1.60258806       1.02992105      -0.00000000       2.95897913       1.83259559    
   1.63445795      0.978555024      -0.00000000       2.95897913       1.83259559    
   0.00000000       0.00000000       0.00000000       2.95897913       1.83259559    
   1.56910396       1.08024895      -0.00000000       2.95897913       1.83259559    
   1.45931494       1.22450995      -0.00000000       3.23112726       1.80683017    
   1.49743104       1.17759299      -0.00000000       3.23112726       1.80683017    
   0.00000000       0.00000000       0.00000000       3.23112726       1.80683017    
   1.41972899       1.27019501      -0.00000000       3.23112726       1.80683017    
   0.00000000       0.00000000       0.00000000       3.10187173       1.81860912    
   1.49743104       1.17759299      -0.00000000       3.10187173       1.81860912    
   1.53403997       1.12949002      -0.00000000       3.10187173       1.81860912    
   1.56910396       1.08024895      -0.00000000       3.10187173       1.81860912    
   1.37871301       1.31459999      -0.00000000       3.29118085       1.80153573    
   1.41972899       1.27019501      -0.00000000       3.29118085       1.80153573    
   0.00000000       0.00000000       0.00000000       3.29118085       1.80153573    
   1.33631003       1.35768199      -0.00000000       3.29118085       1.80153573    
   1.20120299       1.47855902      -0.00000000       3.07173371       1.82117701    
   1.24750996       1.43970299      -0.00000000       3.07173371       1.82117701    
   0.00000000       0.00000000       0.00000000       3.07173371       1.82117701    
   1.15368605       1.51592600      -0.00000000       3.07173371       1.82117701    
   0.00000000       0.00000000       0.00000000       3.21634173       1.80794930    
   1.24750996       1.43970299      -0.00000000       3.21634173       1.80794930    
   1.29255998       1.39939702      -0.00000000       3.21634173       1.80794930    
   1.33631003       1.35768199      -0.00000000       3.21634173       1.80794930    
   1.10500801       1.55176699      -0.00000000       2.91821790       1.83649385    
   1.15368605       1.51592600      -0.00000000       2.91821790       1.83649385    
   0.00000000       0.00000000       0.00000000       2.91821790       1.83649385    
   1.05521798       1.58604598      -0.00000000       2.91821790       1.83649385    
  0.899676025       1.67916906      -0.00000000       2.65399218       1.86677575    
  0.952499986       1.64977801      -0.00000000       2.65399218       1.86677575    
   0.00000000       0.00000000       0.00000000       2.65399218       1.86677575    
  0.845947027       1.70686805      -0.00000000       2.65399218       1.86677575    
   0.00000000       0.00000000       0.00000000       2.77579069       1.85212028    
  0.952499986       1.64977801      -0.00000000       2.77579069       1.85212028    
   1.00436401       1.61872697      -0.00000000       2.77579069       1.85212028    
   1.05521798       1.58604598      -0.00000000       2.77579069       1.85212028    
  0.791365981       1.73284900      -0.00000000       2.55767393       1.87935877    
  0.845947027       1.70686805      -0.00000000       2.55767393       1.87935877    
   0.00000000       0.00000000       0.00000000       2.55767393       1.87935877    
  0.735987008       1.75708497      -0.00000000       2.55767393       1.87935877    
  0.565632999       1.81908906      -0.00000000       2.43320155       1.89714193    
  0.623063982       1.80022705      -0.00000000       2.43320155       1.89714193    
   0.00000000       0.00000000       0.00000000       2.43320155       1.89714193    
  0.507632971       1.83611906      -0.00000000       2.43320155       1.89714193    
   0.00000000       0.00000000       0.00000000       2.48497796       1.88951719    
  0.623063982       1.80022705      -0.00000000       2.48497796       1.88951719    
  0.679867983       1.77955198      -0.00000000       2.48497796       1.88951719    
  0.735987008       1.75708497      -0.00000000       2.48497796       1.88951719    
  0.449120998       1.85130095      -0.00000000       2.39946342       1.90232205    
  0.507632971       1.83611906      -0.00000000       2.39946342       1.90232205    
   0.00000000       0.00000000       0.00000000       2.39946342       1.90232205    
  0.390157014       1.86461902      -0.00000000       2.39946342       1.90232205    
  0.211146995       1.89326203      -0.00000000       2.36631012       1.90759516    
  0.271109998       1.88560998      -0.00000000       2.36631012       1.90759516    
   0.00000000       0.00000000       0.00000000       2.36631012       1.90759516    
  0.150970995       1.89900804      -0.00000000       2.36631012       1.90759516    
   0.00000000       0.00000000       0.00000000       2.37878323       1.90559340    
  0.271109998       1.88560998      -0.00000000       2.37878323       1.90559340    
  0.330799997       1.87605906      -0.00000000       2.37878323       1.90559340    
  0.390157014       1.86461902      -0.00000000       2.37878323       1.90559340    
   9.06440020E-02   1.90284204      -0.00000000       2.36007524       1.90860212    
  0.150970995       1.89900804      -0.00000000       2.36007524       1.90860212    
   0.00000000       0.00000000       0.00000000       2.36007524       1.90860212    
   3.02249994E-02   1.90476000      -0.00000000       2.36007524       1.90860212    
 -0.150970995       1.89900804      -0.00000000       2.36774325       1.90735757    
  -9.06440020E-02   1.90284204      -0.00000000       2.36774325       1.90735757    
   0.00000000       0.00000000       0.00000000       2.36774325       1.90735757    
 -0.211146995       1.89326203      -0.00000000       2.36774325       1.90735757    
   0.00000000       0.00000000       0.00000000       2.36090994       1.90846872    
  -9.06440020E-02   1.90284204      -0.00000000       2.36090994       1.90846872    
  -3.02249994E-02   1.90476000      -0.00000000       2.36090994       1.90846872    
   3.02249994E-02   1.90476000      -0.00000000       2.36090994       1.90846872    
 -0.271109998       1.88560998      -0.00000000       2.38108945       1.90521371    
 -0.211146995       1.89326203      -0.00000000       2.38108945       1.90521371    
   0.00000000       0.00000000       0.00000000       2.38108945       1.90521371    
 -0.330799997       1.87605906      -0.00000000       2.38108945       1.90521371    
 -0.507632971       1.83611906      -0.00000000       2.44317150       1.89566195    
 -0.449120998       1.85130095      -0.00000000       2.44317150       1.89566195    
   0.00000000       0.00000000       0.00000000       2.44317150       1.89566195    
 -0.565632999       1.81908906      -0.00000000       2.44317150       1.89566195    
   0.00000000       0.00000000       0.00000000       2.40418577       1.90158188    
 -0.449120998       1.85130095      -0.00000000       2.40418577       1.90158188    
 -0.390157014       1.86461902      -0.00000000       2.40418577       1.90158188    
 -0.330799997       1.87605906      -0.00000000       2.40418577       1.90158188    
 -0.623063982       1.80022705      -0.00000000       2.49961376       1.88745737    
 -0.565632999       1.81908906      -0.00000000       2.49961376       1.88745737    
   0.00000000       0.00000000       0.00000000       2.49961376       1.88745737    
 -0.679867983       1.77955198      -0.00000000       2.49961376       1.88745737    
 -0.845947027       1.70686805      -0.00000000       2.67899489       1.86376512    
 -0.791365981       1.73284900      -0.00000000       2.67899489       1.86376512    
   0.00000000       0.00000000       0.00000000       2.67899489       1.86376512    
 -0.899676025       1.67916906      -0.00000000       2.67899489       1.86376512    
   0.00000000       0.00000000       0.00000000       2.57735085       1.87677705    
 -0.791365981       1.73284900      -0.00000000       2.57735085       1.87677705    
 -0.735987008       1.75708497      -0.00000000       2.57735085       1.87677705    
 -0.679867983       1.77955198      -0.00000000       2.57735085       1.87677705    
 -0.952499986       1.64977801      -0.00000000       2.80238271       1.84922624    
 -0.899676025       1.67916906      -0.00000000       2.80238271       1.84922624    
   0.00000000       0.00000000       0.00000000       2.80238271       1.84922624    
  -1.00436401       1.61872697      -0.00000000       2.80238271       1.84922624    
  -1.15368605       1.51592600      -0.00000000       3.08633709       1.81992090    
  -1.10500801       1.55176699      -0.00000000       3.08633709       1.81992090    
   0.00000000       0.00000000       0.00000000       3.08633709       1.81992090    
  -1.20120299       1.47855902      -0.00000000       3.08633709       1.81992090    
   0.00000000       0.00000000       0.00000000       2.94140816       1.83423984    
  -1.10500801       1.55176699      -0.00000000       2.94140816       1.83423984    
  -1.05521798       1.58604598      -0.00000000       2.94140816       1.83423984    
  -1.00436401       1.61872697      -0.00000000       2.94140816       1.83423984    
  -1.24750996       1.43970299      -0.00000000       3.21713805       1.80791521    
  -1.20120299       1.47855902      -0.00000000       3.21713805       1.80791521    
   0.00000000       0.00000000       0.00000000       3.21713805       1.80791521    
  -1.29255998       1.39939702      -0.00000000       3.21713805       1.80791521    
  -1.41972899       1.27019501      -0.00000000       3.20387530       1.80892313    
  -1.37871301       1.31459999      -0.00000000       3.20387530       1.80892313    
   0.00000000       0.00000000       0.00000000       3.20387530       1.80892313    
  -1.45931494       1.22450995      -0.00000000       3.20387530       1.80892313    
   0.00000000       0.00000000       0.00000000       3.27798152       1.80252349    
  -1.37871301       1.31459999      -0.00000000       3.27798152       1.80252349    
  -1.33631003       1.35768199      -0.00000000       3.27798152       1.80252349    
  -1.29255998       1.39939702      -0.00000000       3.27798152       1.80252349    
  -1.49743104       1.17759299      -0.00000000       3.06041789       1.82213306    
  -1.45931494       1.22450995      -0.00000000       3.06041789       1.82213306    
   0.00000000       0.00000000       0.00000000       3.06041789       1.82213306    
  -1.53403997       1.12949002      -0.00000000       3.06041789       1.82213306    
  -1.63445795      0.978555024      -0.00000000       2.76663089       1.85303855    
  -1.60258806       1.02992105      -0.00000000       2.76663089       1.85303855    
   0.00000000       0.00000000       0.00000000       2.76663089       1.85303855    
  -1.66468298      0.926204979      -0.00000000       2.76663089       1.85303855    
   0.00000000       0.00000000       0.00000000       2.90808225       1.83742571    
  -1.60258806       1.02992105      -0.00000000       2.90808225       1.83742571    
  -1.56910396       1.08024895      -0.00000000       2.90808225       1.83742571    
  -1.53403997       1.12949002      -0.00000000       2.90808225       1.83742571    
  -1.69323206      0.872922003      -0.00000000       2.64570570       1.86766982    
  -1.66468298      0.926204979      -0.00000000       2.64570570       1.86766982    
   0.00000000       0.00000000       0.00000000       2.64570570       1.86766982    
  -1.72007501      0.818759024      -0.00000000       2.64570570       1.86766982    
  -1.79011405      0.651548028      -0.00000000       2.47833490       1.89031303    
  -1.76854098      0.708016992      -0.00000000       2.47833490       1.89031303    
   0.00000000       0.00000000       0.00000000       2.47833490       1.89031303    
  -1.80988598      0.594424009      -0.00000000       2.47833490       1.89031303    
   0.00000000       0.00000000       0.00000000       2.55013466       1.88022351    
  -1.76854098      0.708016992      -0.00000000       2.55013466       1.88022351    
  -1.74518704      0.763773024      -0.00000000       2.55013466       1.88022351    
  -1.72007501      0.818759024      -0.00000000       2.55013466       1.88022351    
  -1.82783401      0.536701024      -0.00000000       2.42725682       1.89787173    
  -1.80988598      0.594424009      -0.00000000       2.42725682       1.89787173    
   0.00000000       0.00000000       0.00000000       2.42725682       1.89787173    
  -1.84394205      0.478437006      -0.00000000       2.42725682       1.89787173    
  -1.88107097      0.300992996      -0.00000000       2.37365580       1.90623832    
  -1.87057400      0.360523999      -0.00000000       2.37365580       1.90623832    
   0.00000000       0.00000000       0.00000000       2.37365580       1.90623832    
  -1.88967395      0.241159007      -0.00000000       2.37365580       1.90623832    
   0.00000000       0.00000000       0.00000000       2.39399672       1.90300608    
  -1.87057400      0.360523999      -0.00000000       2.39399672       1.90300608    
  -1.85819399      0.419692010      -0.00000000       2.39399672       1.90300608    
  -1.84394205      0.478437006      -0.00000000       2.39399672       1.90300608    
  -1.89637399      0.181081995      -0.00000000       2.36144876       1.90821218    
  -1.88967395      0.241159007      -0.00000000       2.36144876       1.90821218    
   0.00000000       0.00000000       0.00000000       2.36144876       1.90821218    
  -1.90116501      0.120823003      -0.00000000       2.36144876       1.90821218    
  -1.90404105      -6.04420006E-02  -0.00000000       2.35649443       1.90902936    
  -1.90499997       0.00000000      -0.00000000       2.35649443       1.90902936    
   0.00000000       0.00000000       0.00000000       2.35649443       1.90902936    
  -1.90116501     -0.120823003      -0.00000000       2.35649443       1.90902936    
   0.00000000       0.00000000       0.00000000       2.35544991       1.90919173    
  -1.90499997       0.00000000      -0.00000000       2.35544991       1.90919173    
  -1.90404105       6.04420006E-02  -0.00000000       2.35544991       1.90919173    
  -1.90116501      0.120823003      -0.00000000       2.35544991       1.90919173    
  -1.89637399     -0.181081995      -0.00000000       2.36357975       1.90788567    
  -1.90116501     -0.120823003      -0.00000000       2.36357975       1.90788567    
   0.00000000       0.00000000       0.00000000       2.36357975       1.90788567    
  -1.88967395     -0.241159007      -0.00000000       2.36357975       1.90788567    
  -1.85819399     -0.419692010      -0.00000000       2.40077090       1.90199566    
  -1.87057400     -0.360523999      -0.00000000       2.40077090       1.90199566    
   0.00000000       0.00000000       0.00000000       2.40077090       1.90199566    
  -1.84394205     -0.478437006      -0.00000000       2.40077090       1.90199566    
   0.00000000       0.00000000       0.00000000       2.37725902       1.90569103    
  -1.87057400     -0.360523999      -0.00000000       2.37725902       1.90569103    
  -1.88107097     -0.300992996      -0.00000000       2.37725902       1.90569103    
  -1.88967395     -0.241159007      -0.00000000       2.37725902       1.90569103    
  -1.82783401     -0.536701024      -0.00000000       2.44022059       1.89600098    
  -1.84394205     -0.478437006      -0.00000000       2.44022059       1.89600098    
   0.00000000       0.00000000       0.00000000       2.44022059       1.89600098    
  -1.80988598     -0.594424009      -0.00000000       2.44022059       1.89600098    
  -1.74518704     -0.763773024      -0.00000000       2.57544756       1.87695956    
  -1.76854098     -0.708016992      -0.00000000       2.57544756       1.87695956    
   0.00000000       0.00000000       0.00000000       2.57544756       1.87695956    
  -1.72007501     -0.818759024      -0.00000000       2.57544756       1.87695956    
   0.00000000       0.00000000       0.00000000       2.49717045       1.88771939    
  -1.76854098     -0.708016992      -0.00000000       2.49717045       1.88771939    
  -1.79011405     -0.651548028      -0.00000000       2.49717045       1.88771939    
  -1.80988598     -0.594424009      -0.00000000       2.49717045       1.88771939    
  -1.69323206     -0.872922003      -0.00000000       2.67767644       1.86387157    
  -1.72007501     -0.818759024      -0.00000000       2.67767644       1.86387157    
   0.00000000       0.00000000       0.00000000       2.67767644       1.86387157    
  -1.66468298     -0.926204979      -0.00000000       2.67767644       1.86387157    
  -1.56910396      -1.08024895      -0.00000000       2.94138336       1.83421171    
  -1.60258806      -1.02992105      -0.00000000       2.94138336       1.83421171    
   0.00000000       0.00000000       0.00000000       2.94138336       1.83421171    
  -1.53403997      -1.12949002      -0.00000000       2.94138336       1.83421171    
   0.00000000       0.00000000       0.00000000       2.80170083       1.84926105    
  -1.60258806      -1.02992105      -0.00000000       2.80170083       1.84926105    
  -1.63445795     -0.978555024      -0.00000000       2.80170083       1.84926105    
  -1.66468298     -0.926204979      -0.00000000       2.80170083       1.84926105    
  -1.49743104      -1.17759299      -0.00000000       3.08704591       1.81984365    
  -1.53403997      -1.12949002      -0.00000000       3.08704591       1.81984365    
   0.00000000       0.00000000       0.00000000       3.08704591       1.81984365    
  -1.45931494      -1.22450995      -0.00000000       3.08704591       1.81984365    
  -1.33631003      -1.35768199      -0.00000000       3.27951360       1.80241120    
  -1.37871301      -1.31459999      -0.00000000       3.27951360       1.80241120    
   0.00000000       0.00000000       0.00000000       3.27951360       1.80241120    
  -1.29255998      -1.39939702      -0.00000000       3.27951360       1.80241120    
   0.00000000       0.00000000       0.00000000       3.21846771       1.80780256    
  -1.37871301      -1.31459999      -0.00000000       3.21846771       1.80780256    
  -1.41972899      -1.27019501      -0.00000000       3.21846771       1.80780256    
  -1.45931494      -1.22450995      -0.00000000       3.21846771       1.80780256    
  -1.24750996      -1.43970299      -0.00000000       3.20542741       1.80881262    
  -1.29255998      -1.39939702      -0.00000000       3.20542741       1.80881262    
   0.00000000       0.00000000       0.00000000       3.20542741       1.80881262    
  -1.20120299      -1.47855902      -0.00000000       3.20542741       1.80881262    
  -1.05521798      -1.58604598      -0.00000000       2.91017365       1.83724737    
  -1.10500801      -1.55176699      -0.00000000       2.91017365       1.83724737    
   0.00000000       0.00000000       0.00000000       2.91017365       1.83724737    
  -1.00436401      -1.61872697      -0.00000000       2.91017365       1.83724737    
   0.00000000       0.00000000       0.00000000       3.06222868       1.82199490    
  -1.10500801      -1.55176699      -0.00000000       3.06222868       1.82199490    
  -1.15368605      -1.51592600      -0.00000000       3.06222868       1.82199490    
  -1.20120299      -1.47855902      -0.00000000       3.06222868       1.82199490    
 -0.952499986      -1.64977801      -0.00000000       2.76895070       1.85281610    
  -1.00436401      -1.61872697      -0.00000000       2.76895070       1.85281610    
   0.00000000       0.00000000       0.00000000       2.76895070       1.85281610    
 -0.899676025      -1.67916906      -0.00000000       2.76895070       1.85281610    
 -0.735987008      -1.75708497      -0.00000000       2.55287886       1.87992001    
 -0.791365981      -1.73284900      -0.00000000       2.55287886       1.87992001    
   0.00000000       0.00000000       0.00000000       2.55287886       1.87992001    
 -0.679867983      -1.77955198      -0.00000000       2.55287886       1.87992001    
   0.00000000       0.00000000       0.00000000       2.64824486       1.86740685    
 -0.791365981      -1.73284900      -0.00000000       2.64824486       1.86740685    
 -0.845947027      -1.70686805      -0.00000000       2.64824486       1.86740685    
 -0.899676025      -1.67916906      -0.00000000       2.64824486       1.86740685    
 -0.623063982      -1.80022705      -0.00000000       2.48128390       1.88996375    
 -0.679867983      -1.77955198      -0.00000000       2.48128390       1.88996375    
   0.00000000       0.00000000       0.00000000       2.48128390       1.88996375    
 -0.565632999      -1.81908906      -0.00000000       2.48128390       1.88996375    
 -0.390157014      -1.86461902      -0.00000000       2.39729786       1.90259194    
 -0.449120998      -1.85130095      -0.00000000       2.39729786       1.90259194    
   0.00000000       0.00000000       0.00000000       2.39729786       1.90259194    
 -0.330799997      -1.87605906      -0.00000000       2.39729786       1.90259194    
   0.00000000       0.00000000       0.00000000       2.43040872       1.89748526    
 -0.449120998      -1.85130095      -0.00000000       2.43040872       1.89748526    
 -0.507632971      -1.83611906      -0.00000000       2.43040872       1.89748526    
 -0.565632999      -1.81908906      -0.00000000       2.43040872       1.89748526    
 -0.271109998      -1.88560998      -0.00000000       2.37704372       1.90580726    
 -0.330799997      -1.87605906      -0.00000000       2.37704372       1.90580726    
   0.00000000       0.00000000       0.00000000       2.37704372       1.90580726    
 -0.211146995      -1.89326203      -0.00000000       2.37704372       1.90580726    
  -3.02249994E-02  -1.90476000      -0.00000000       2.35880470       1.90877247    
  -9.06440020E-02  -1.90284204      -0.00000000       2.35880470       1.90877247    
   0.00000000       0.00000000       0.00000000       2.35880470       1.90877247    
   3.02249994E-02  -1.90476000      -0.00000000       2.35880470       1.90877247    
   0.00000000       0.00000000       0.00000000       2.36486101       1.90778148    
  -9.06440020E-02  -1.90284204      -0.00000000       2.36486101       1.90778148    
 -0.150970995      -1.89900804      -0.00000000       2.36486101       1.90778148    
 -0.211146995      -1.89326203      -0.00000000       2.36486101       1.90778148    
   9.06440020E-02  -1.90284204      -0.00000000       2.35976481       1.90862787    
   3.02249994E-02  -1.90476000      -0.00000000       2.35976481       1.90862787    
   0.00000000       0.00000000       0.00000000       2.35976481       1.90862787    
  0.150970995      -1.89900804      -0.00000000       2.35976481       1.90862787    
  0.330799997      -1.87605906      -0.00000000       2.38049936       1.90530777    
  0.271109998      -1.88560998      -0.00000000       2.38049936       1.90530777    
   0.00000000       0.00000000       0.00000000       2.38049936       1.90530777    
  0.390157014      -1.86461902      -0.00000000       2.38049936       1.90530777    
   0.00000000       0.00000000       0.00000000       2.36681104       1.90749633    
  0.271109998      -1.88560998      -0.00000000       2.36681104       1.90749633    
  0.211146995      -1.89326203      -0.00000000       2.36681104       1.90749633    
  0.150970995      -1.89900804      -0.00000000       2.36681104       1.90749633    
  0.449120998      -1.85130095      -0.00000000       2.40410280       1.90160906    
  0.390157014      -1.86461902      -0.00000000       2.40410280       1.90160906    
   0.00000000       0.00000000       0.00000000       2.40410280       1.90160906    
  0.507632971      -1.83611906      -0.00000000       2.40410280       1.90160906    
  0.679867983      -1.77955198      -0.00000000       2.50120234       1.88726366    
  0.623063982      -1.80022705      -0.00000000       2.50120234       1.88726366    
   0.00000000       0.00000000       0.00000000       2.50120234       1.88726366    
  0.735987008      -1.75708497      -0.00000000       2.50120234       1.88726366    
   0.00000000       0.00000000       0.00000000       2.44377041       1.89559448    
  0.623063982      -1.80022705      -0.00000000       2.44377041       1.89559448    
  0.565632999      -1.81908906      -0.00000000       2.44377041       1.89559448    
  0.507632971      -1.83611906      -0.00000000       2.44377041       1.89559448    
  0.791365981      -1.73284900      -0.00000000       2.57962537       1.87650800    
  0.735987008      -1.75708497      -0.00000000       2.57962537       1.87650800    
   0.00000000       0.00000000       0.00000000       2.57962537       1.87650800    
  0.845947027      -1.70686805      -0.00000000       2.57962537       1.87650800    
   1.00436401      -1.61872697      -0.00000000       2.80601501       1.84884751    
  0.952499986      -1.64977801      -0.00000000       2.80601501       1.84884751    
   0.00000000       0.00000000       0.00000000       2.80601501       1.84884751    
   1.05521798      -1.58604598      -0.00000000       2.80601501       1.84884751    
   0.00000000       0.00000000       0.00000000       2.68193030       1.86343718    
  0.952499986      -1.64977801      -0.00000000       2.68193030       1.86343718    
  0.899676025      -1.67916906      -0.00000000       2.68193030       1.86343718    
  0.845947027      -1.70686805      -0.00000000       2.68193030       1.86343718    
   1.10500801      -1.55176699      -0.00000000       2.94581485       1.83380973    
   1.05521798      -1.58604598      -0.00000000       2.94581485       1.83380973    
   0.00000000       0.00000000       0.00000000       2.94581485       1.83380973    
   1.15368605      -1.51592600      -0.00000000       2.94581485       1.83380973    
   1.29255998      -1.39939702      -0.00000000       3.22354603       1.80737603    
   1.24750996      -1.43970299      -0.00000000       3.22354603       1.80737603    
   0.00000000       0.00000000       0.00000000       3.22354603       1.80737603    
   1.33631003      -1.35768199      -0.00000000       3.22354603       1.80737603    
   0.00000000       0.00000000       0.00000000       3.09174228       1.81943202    
   1.24750996      -1.43970299      -0.00000000       3.09174228       1.81943202    
   1.20120299      -1.47855902      -0.00000000       3.09174228       1.81943202    