 VARIABLES="X" "Y" "Z" "abs(p) (Pa)" "angle(p) (rad)"
ZONE N=    802,E =     800, F=FEPOINT, ET=QUADRILATERAL
   1.90499997       0.00000000      -0.00000000       490.777588       1.59699690    
   1.90404105      -6.04420006E-02  -0.00000000       490.777588       1.59699690    
   0.00000000       0.00000000       0.00000000       490.777588       1.59699690    
   1.90404105       6.04420006E-02  -0.00000000       490.777588       1.59699690    
   1.88967395      0.241159007      -0.00000000       489.686829       1.59664345    
   1.89637399      0.181081995      -0.00000000       489.686829       1.59664345    
   0.00000000       0.00000000       0.00000000       489.686829       1.59664345    
   1.88107097      0.300992996      -0.00000000       489.686829       1.59664345    
   0.00000000       0.00000000       0.00000000       490.489227       1.59690952    
   1.89637399      0.181081995      -0.00000000       490.489227       1.59690952    
   1.90116501      0.120823003      -0.00000000       490.489227       1.59690952    
   1.90404105       6.04420006E-02  -0.00000000       490.489227       1.59690952    
   1.87057400      0.360523999      -0.00000000       488.870605       1.59613919    
   1.88107097      0.300992996      -0.00000000       488.870605       1.59613919    
   0.00000000       0.00000000       0.00000000       488.870605       1.59613919    
   1.85819399      0.419692010      -0.00000000       488.870605       1.59613919    
   1.80988598      0.594424009      -0.00000000       488.867249       1.59421039    
   1.82783401      0.536701024      -0.00000000       488.867249       1.59421039    
   0.00000000       0.00000000       0.00000000       488.867249       1.59421039    
   1.79011405      0.651548028      -0.00000000       488.867249       1.59421039    
   0.00000000       0.00000000       0.00000000       488.401031       1.59535074    
   1.82783401      0.536701024      -0.00000000       488.401031       1.59535074    
   1.84394205      0.478437006      -0.00000000       488.401031       1.59535074    
   1.85819399      0.419692010      -0.00000000       488.401031       1.59535074    
   1.76854098      0.708016992      -0.00000000       491.169037       1.59262288    
   1.79011405      0.651548028      -0.00000000       491.169037       1.59262288    
   0.00000000       0.00000000       0.00000000       491.169037       1.59262288    
   1.74518704      0.763773024      -0.00000000       491.169037       1.59262288    
   1.66468298      0.926204979      -0.00000000       502.141907       1.58808744    
   1.69323206      0.872922003      -0.00000000       502.141907       1.58808744    
   0.00000000       0.00000000       0.00000000       502.141907       1.58808744    
   1.63445795      0.978555024      -0.00000000       502.141907       1.58808744    
   0.00000000       0.00000000       0.00000000       495.598938       1.59057641    
   1.69323206      0.872922003      -0.00000000       495.598938       1.59057641    
   1.72007501      0.818759024      -0.00000000       495.598938       1.59057641    
   1.74518704      0.763773024      -0.00000000       495.598938       1.59057641    
   1.60258806       1.02992105      -0.00000000       510.080627       1.58526158    
   1.63445795      0.978555024      -0.00000000       510.080627       1.58526158    
   0.00000000       0.00000000       0.00000000       510.080627       1.58526158    
   1.56910396       1.08024895      -0.00000000       510.080627       1.58526158    
   1.45931494       1.22450995      -0.00000000       523.747681       1.57926965    
   1.49743104       1.17759299      -0.00000000       523.747681       1.57926965    
   0.00000000       0.00000000       0.00000000       523.747681       1.57926965    
   1.41972899       1.27019501      -0.00000000       523.747681       1.57926965    
   0.00000000       0.00000000       0.00000000       518.341797       1.58221996    
   1.49743104       1.17759299      -0.00000000       518.341797       1.58221996    
   1.53403997       1.12949002      -0.00000000       518.341797       1.58221996    
   1.56910396       1.08024895      -0.00000000       518.341797       1.58221996    
   1.37871301       1.31459999      -0.00000000       516.021362       1.57734621    
   1.41972899       1.27019501      -0.00000000       516.021362       1.57734621    
   0.00000000       0.00000000       0.00000000       516.021362       1.57734621    
   1.33631003       1.35768199      -0.00000000       516.021362       1.57734621    
   1.20120299       1.47855902      -0.00000000       435.127075       1.57942176    
   1.24750996       1.43970299      -0.00000000       435.127075       1.57942176    
   0.00000000       0.00000000       0.00000000       435.127075       1.57942176    
   1.15368605       1.51592600      -0.00000000       435.127075       1.57942176    
   0.00000000       0.00000000       0.00000000       482.199524       1.57771933    
   1.24750996       1.43970299      -0.00000000       482.199524       1.57771933    
   1.29255998       1.39939702      -0.00000000       482.199524       1.57771933    
   1.33631003       1.35768199      -0.00000000       482.199524       1.57771933    
   1.10500801       1.55176699      -0.00000000       386.043213       1.58153045    
   1.15368605       1.51592600      -0.00000000       386.043213       1.58153045    
   0.00000000       0.00000000       0.00000000       386.043213       1.58153045    
   1.05521798       1.58604598      -0.00000000       386.043213       1.58153045    
  0.899676025       1.67916906      -0.00000000       292.684784       1.58606899    
  0.952499986       1.64977801      -0.00000000       292.684784       1.58606899    
   0.00000000       0.00000000       0.00000000       292.684784       1.58606899    
  0.845947027       1.70686805      -0.00000000       292.684784       1.58606899    
   0.00000000       0.00000000       0.00000000       338.240479       1.58377171    
  0.952499986       1.64977801      -0.00000000       338.240479       1.58377171    
   1.00436401       1.61872697      -0.00000000       338.240479       1.58377171    
   1.05521798       1.58604598      -0.00000000       338.240479       1.58377171    
  0.791365981       1.73284900      -0.00000000       249.998383       1.58831489    
  0.845947027       1.70686805      -0.00000000       249.998383       1.58831489    
   0.00000000       0.00000000       0.00000000       249.998383       1.58831489    
  0.735987008       1.75708497      -0.00000000       249.998383       1.58831489    
  0.565632999       1.81908906      -0.00000000       171.355942       1.59305799    
  0.623063982       1.80022705      -0.00000000       171.355942       1.59305799    
   0.00000000       0.00000000       0.00000000       171.355942       1.59305799    
  0.507632971       1.83611906      -0.00000000       171.355942       1.59305799    
   0.00000000       0.00000000       0.00000000       209.756897       1.59058595    
  0.623063982       1.80022705      -0.00000000       209.756897       1.59058595    
  0.679867983       1.77955198      -0.00000000       209.756897       1.59058595    
  0.735987008       1.75708497      -0.00000000       209.756897       1.59058595    
  0.449120998       1.85130095      -0.00000000       134.198944       1.59615791    
  0.507632971       1.83611906      -0.00000000       134.198944       1.59615791    
   0.00000000       0.00000000       0.00000000       134.198944       1.59615791    
  0.390157014       1.86461902      -0.00000000       134.198944       1.59615791    
  0.211146995       1.89326203      -0.00000000       62.2387733       1.61011410    
  0.271109998       1.88560998      -0.00000000       62.2387733       1.61011410    
   0.00000000       0.00000000       0.00000000       62.2387733       1.61011410    
  0.150970995       1.89900804      -0.00000000       62.2387733       1.61011410    
   0.00000000       0.00000000       0.00000000       97.9440689       1.60083485    
  0.271109998       1.88560998      -0.00000000       97.9440689       1.60083485    
  0.330799997       1.87605906      -0.00000000       97.9440689       1.60083485    
  0.390157014       1.86461902      -0.00000000       97.9440689       1.60083485    
   9.06440020E-02   1.90284204      -0.00000000       26.5958366       1.64385891    
  0.150970995       1.89900804      -0.00000000       26.5958366       1.64385891    
   0.00000000       0.00000000       0.00000000       26.5958366       1.64385891    
   3.02249994E-02   1.90476000      -0.00000000       26.5958366       1.64385891    
 -0.150970995       1.89900804      -0.00000000       44.6077652      -1.59135568    
  -9.06440020E-02   1.90284204      -0.00000000       44.6077652      -1.59135568    
   0.00000000       0.00000000       0.00000000       44.6077652      -1.59135568    
 -0.211146995       1.89326203      -0.00000000       44.6077652      -1.59135568    
   0.00000000       0.00000000       0.00000000       9.19196892      -1.72695577    
  -9.06440020E-02   1.90284204      -0.00000000       9.19196892      -1.72695577    
  -3.02249994E-02   1.90476000      -0.00000000       9.19196892      -1.72695577    
   3.02249994E-02   1.90476000      -0.00000000       9.19196892      -1.72695577    
 -0.271109998       1.88560998      -0.00000000       80.2657089      -1.57596171    
 -0.211146995       1.89326203      -0.00000000       80.2657089      -1.57596171    
   0.00000000       0.00000000       0.00000000       80.2657089      -1.57596171    
 -0.330799997       1.87605906      -0.00000000       80.2657089      -1.57596171    
 -0.507632971       1.83611906      -0.00000000       153.874802      -1.56767678    
 -0.449120998       1.85130095      -0.00000000       153.874802      -1.56767678    
   0.00000000       0.00000000       0.00000000       153.874802      -1.56767678    
 -0.565632999       1.81908906      -0.00000000       153.874802      -1.56767678    
   0.00000000       0.00000000       0.00000000       116.637161      -1.57031918    
 -0.449120998       1.85130095      -0.00000000       116.637161      -1.57031918    
 -0.390157014       1.86461902      -0.00000000       116.637161      -1.57031918    
 -0.330799997       1.87605906      -0.00000000       116.637161      -1.57031918    
 -0.623063982       1.80022705      -0.00000000       192.318619      -1.56644678    
 -0.565632999       1.81908906      -0.00000000       192.318619      -1.56644678    
   0.00000000       0.00000000       0.00000000       192.318619      -1.56644678    
 -0.679867983       1.77955198      -0.00000000       192.318619      -1.56644678    
 -0.845947027       1.70686805      -0.00000000       275.403107      -1.56639349    
 -0.791365981       1.73284900      -0.00000000       275.403107      -1.56639349    
   0.00000000       0.00000000       0.00000000       275.403107      -1.56639349    
 -0.899676025       1.67916906      -0.00000000       275.403107      -1.56639349    
   0.00000000       0.00000000       0.00000000       232.718735      -1.56611860    
 -0.791365981       1.73284900      -0.00000000       232.718735      -1.56611860    
 -0.735987008       1.75708497      -0.00000000       232.718735      -1.56611860    
 -0.679867983       1.77955198      -0.00000000       232.718735      -1.56611860    
 -0.952499986       1.64977801      -0.00000000       320.464813      -1.56709969    
 -0.899676025       1.67916906      -0.00000000       320.464813      -1.56709969    
   0.00000000       0.00000000       0.00000000       320.464813      -1.56709969    
  -1.00436401       1.61872697      -0.00000000       320.464813      -1.56709969    
  -1.15368605       1.51592600      -0.00000000       414.674347      -1.56906819    
  -1.10500801       1.55176699      -0.00000000       414.674347      -1.56906819    
   0.00000000       0.00000000       0.00000000       414.674347      -1.56906819    
  -1.20120299       1.47855902      -0.00000000       414.674347      -1.56906819    
   0.00000000       0.00000000       0.00000000       367.244781      -1.56804085    
  -1.10500801       1.55176699      -0.00000000       367.244781      -1.56804085    
  -1.05521798       1.58604598      -0.00000000       367.244781      -1.56804085    
  -1.00436401       1.61872697      -0.00000000       367.244781      -1.56804085    
  -1.24750996       1.43970299      -0.00000000       459.603790      -1.56990469    
  -1.20120299       1.47855902      -0.00000000       459.603790      -1.56990469    
   0.00000000       0.00000000       0.00000000       459.603790      -1.56990469    
  -1.29255998       1.39939702      -0.00000000       459.603790      -1.56990469    
  -1.41972899       1.27019501      -0.00000000       498.978058      -1.56758368    
  -1.37871301       1.31459999      -0.00000000       498.978058      -1.56758368    
   0.00000000       0.00000000       0.00000000       498.978058      -1.56758368    
  -1.45931494       1.22450995      -0.00000000       498.978058      -1.56758368    
   0.00000000       0.00000000       0.00000000       491.868073      -1.56973660    
  -1.37871301       1.31459999      -0.00000000       491.868073      -1.56973660    
  -1.33631003       1.35768199      -0.00000000       491.868073      -1.56973660    
  -1.29255998       1.39939702      -0.00000000       491.868073      -1.56973660    
  -1.49743104       1.17759299      -0.00000000       493.231873      -1.56449008    
  -1.45931494       1.22450995      -0.00000000       493.231873      -1.56449008    
   0.00000000       0.00000000       0.00000000       493.231873      -1.56449008    
  -1.53403997       1.12949002      -0.00000000       493.231873      -1.56449008    
  -1.63445795      0.978555024      -0.00000000       478.092987      -1.55846667    
  -1.60258806       1.02992105      -0.00000000       478.092987      -1.55846667    
   0.00000000       0.00000000       0.00000000       478.092987      -1.55846667    
  -1.66468298      0.926204979      -0.00000000       478.092987      -1.55846667    
   0.00000000       0.00000000       0.00000000       485.242676      -1.56135297    
  -1.60258806       1.02992105      -0.00000000       485.242676      -1.56135297    
  -1.56910396       1.08024895      -0.00000000       485.242676      -1.56135297    
  -1.53403997       1.12949002      -0.00000000       485.242676      -1.56135297    
  -1.69323206      0.872922003      -0.00000000       472.733734      -1.55594933    
  -1.66468298      0.926204979      -0.00000000       472.733734      -1.55594933    
   0.00000000       0.00000000       0.00000000       472.733734      -1.55594933    
  -1.72007501      0.818759024      -0.00000000       472.733734      -1.55594933    
  -1.79011405      0.651548028      -0.00000000       468.801788      -1.55229414    
  -1.76854098      0.708016992      -0.00000000       468.801788      -1.55229414    
   0.00000000       0.00000000       0.00000000       468.801788      -1.55229414    
  -1.80988598      0.594424009      -0.00000000       468.801788      -1.55229414    
   0.00000000       0.00000000       0.00000000       469.734619      -1.55389595    
  -1.76854098      0.708016992      -0.00000000       469.734619      -1.55389595    
  -1.74518704      0.763773024      -0.00000000       469.734619      -1.55389595    
  -1.72007501      0.818759024      -0.00000000       469.734619      -1.55389595    
  -1.82783401      0.536701024      -0.00000000       469.415253      -1.55111170    
  -1.80988598      0.594424009      -0.00000000       469.415253      -1.55111170    
   0.00000000       0.00000000       0.00000000       469.415253      -1.55111170    
  -1.84394205      0.478437006      -0.00000000       469.415253      -1.55111170    
  -1.88107097      0.300992996      -0.00000000       472.377075      -1.54969430    
  -1.87057400      0.360523999      -0.00000000       472.377075      -1.54969430    
   0.00000000       0.00000000       0.00000000       472.377075      -1.54969430    
  -1.88967395      0.241159007      -0.00000000       472.377075      -1.54969430    
   0.00000000       0.00000000       0.00000000       470.750397      -1.55026031    
  -1.87057400      0.360523999      -0.00000000       470.750397      -1.55026031    
  -1.85819399      0.419692010      -0.00000000       470.750397      -1.55026031    
  -1.84394205      0.478437006      -0.00000000       470.750397      -1.55026031    
  -1.89637399      0.181081995      -0.00000000       473.741150      -1.54935002    
  -1.88967395      0.241159007      -0.00000000       473.741150      -1.54935002    
   0.00000000       0.00000000       0.00000000       473.741150      -1.54935002    
  -1.90116501      0.120823003      -0.00000000       473.741150      -1.54935002    
  -1.90404105      -6.04420006E-02  -0.00000000       474.539032      -1.54918838    
  -1.90499997       0.00000000      -0.00000000       474.539032      -1.54918838    
   0.00000000       0.00000000       0.00000000       474.539032      -1.54918838    
  -1.90116501     -0.120823003      -0.00000000       474.539032      -1.54918838    
   0.00000000       0.00000000       0.00000000       474.472290      -1.54918158    
  -1.90499997       0.00000000      -0.00000000       474.472290      -1.54918158    
  -1.90404105       6.04420006E-02  -0.00000000       474.472290      -1.54918158    
  -1.90116501      0.120823003      -0.00000000       474.472290      -1.54918158    
  -1.89637399     -0.181081995      -0.00000000       473.983978      -1.54937315    
  -1.90116501     -0.120823003      -0.00000000       473.983978      -1.54937315    
   0.00000000       0.00000000       0.00000000       473.983978      -1.54937315    
  -1.88967395     -0.241159007      -0.00000000       473.983978      -1.54937315    
  -1.85819399     -0.419692010      -0.00000000       471.674683      -1.55034828    
  -1.87057400     -0.360523999      -0.00000000       471.674683      -1.55034828    
   0.00000000       0.00000000       0.00000000       471.674683      -1.55034828    
  -1.84394205     -0.478437006      -0.00000000       471.674683      -1.55034828    
   0.00000000       0.00000000       0.00000000       472.843933      -1.54973984    
  -1.87057400     -0.360523999      -0.00000000       472.843933      -1.54973984    
  -1.88107097     -0.300992996      -0.00000000       472.843933      -1.54973984    
  -1.88967395     -0.241159007      -0.00000000       472.843933      -1.54973984    
  -1.82783401     -0.536701024      -0.00000000       470.888336      -1.55124807    
  -1.84394205     -0.478437006      -0.00000000       470.888336      -1.55124807    
   0.00000000       0.00000000       0.00000000       470.888336      -1.55124807    
  -1.80988598     -0.594424009      -0.00000000       470.888336      -1.55124807    
  -1.74518704     -0.763773024      -0.00000000       472.859680      -1.55416083    
  -1.76854098     -0.708016992      -0.00000000       472.859680      -1.55416083    
   0.00000000       0.00000000       0.00000000       472.859680      -1.55416083    
  -1.72007501     -0.818759024      -0.00000000       472.859680      -1.55416083    
   0.00000000       0.00000000       0.00000000       471.016083      -1.55249286    
  -1.76854098     -0.708016992      -0.00000000       471.016083      -1.55249286    
  -1.79011405     -0.651548028      -0.00000000       471.016083      -1.55249286    
  -1.80988598     -0.594424009      -0.00000000       471.016083      -1.55249286    
  -1.69323206     -0.872922003      -0.00000000       476.603851      -1.55625236    
  -1.72007501     -0.818759024      -0.00000000       476.603851      -1.55625236    
   0.00000000       0.00000000       0.00000000       476.603851      -1.55625236    
  -1.66468298     -0.926204979      -0.00000000       476.603851      -1.55625236    
  -1.56910396      -1.08024895      -0.00000000       489.246674      -1.56158733    
  -1.60258806      -1.02992105      -0.00000000       489.246674      -1.56158733    
   0.00000000       0.00000000       0.00000000       489.246674      -1.56158733    
  -1.53403997      -1.12949002      -0.00000000       489.246674      -1.56158733    
   0.00000000       0.00000000       0.00000000       482.277527      -1.55875719    
  -1.60258806      -1.02992105      -0.00000000       482.277527      -1.55875719    
  -1.63445795     -0.978555024      -0.00000000       482.277527      -1.55875719    
  -1.66468298     -0.926204979      -0.00000000       482.277527      -1.55875719    
  -1.49743104      -1.17759299      -0.00000000       496.434418      -1.56462824    
  -1.53403997      -1.12949002      -0.00000000       496.434418      -1.56462824    
   0.00000000       0.00000000       0.00000000       496.434418      -1.56462824    
  -1.45931494      -1.22450995      -0.00000000       496.434418      -1.56462824    
  -1.33631003      -1.35768199      -0.00000000       492.279785      -1.56970048    
  -1.37871301      -1.31459999      -0.00000000       492.279785      -1.56970048    
   0.00000000       0.00000000       0.00000000       492.279785      -1.56970048    
  -1.29255998      -1.39939702      -0.00000000       492.279785      -1.56970048    
   0.00000000       0.00000000       0.00000000       500.798157      -1.56761014    
  -1.37871301      -1.31459999      -0.00000000       500.798157      -1.56761014    
  -1.41972899      -1.27019501      -0.00000000       500.798157      -1.56761014    
  -1.45931494      -1.22450995      -0.00000000       500.798157      -1.56761014    
  -1.24750996      -1.43970299      -0.00000000       458.388641      -1.56981742    
  -1.29255998      -1.39939702      -0.00000000       458.388641      -1.56981742    
   0.00000000       0.00000000       0.00000000       458.388641      -1.56981742    
  -1.20120299      -1.47855902      -0.00000000       458.388641      -1.56981742    
  -1.05521798      -1.58604598      -0.00000000       363.183105      -1.56776547    
  -1.10500801      -1.55176699      -0.00000000       363.183105      -1.56776547    
   0.00000000       0.00000000       0.00000000       363.183105      -1.56776547    
  -1.00436401      -1.61872697      -0.00000000       363.183105      -1.56776547    
   0.00000000       0.00000000       0.00000000       411.758789      -1.56888747    
  -1.10500801      -1.55176699      -0.00000000       411.758789      -1.56888747    
  -1.15368605      -1.51592600      -0.00000000       411.758789      -1.56888747    
  -1.20120299      -1.47855902      -0.00000000       411.758789      -1.56888747    
 -0.952499986      -1.64977801      -0.00000000       315.842865      -1.56674480    
  -1.00436401      -1.61872697      -0.00000000       315.842865      -1.56674480    
   0.00000000       0.00000000       0.00000000       315.842865      -1.56674480    
 -0.899676025      -1.67916906      -0.00000000       315.842865      -1.56674480    
 -0.735987008      -1.75708497      -0.00000000       228.316879      -1.56568027    
 -0.791365981      -1.73284900      -0.00000000       228.316879      -1.56568027    
   0.00000000       0.00000000       0.00000000       228.316879      -1.56568027    
 -0.679867983      -1.77955198      -0.00000000       228.316879      -1.56568027    
   0.00000000       0.00000000       0.00000000       270.687531      -1.56597972    
 -0.791365981      -1.73284900      -0.00000000       270.687531      -1.56597972    
 -0.845947027      -1.70686805      -0.00000000       270.687531      -1.56597972    
 -0.899676025      -1.67916906      -0.00000000       270.687531      -1.56597972    
 -0.623063982      -1.80022705      -0.00000000       188.325180      -1.56600285    
 -0.679867983      -1.77955198      -0.00000000       188.325180      -1.56600285    
   0.00000000       0.00000000       0.00000000       188.325180      -1.56600285    
 -0.565632999      -1.81908906      -0.00000000       188.325180      -1.56600285    
 -0.390157014      -1.86461902      -0.00000000       113.152184      -1.56987739    
 -0.449120998      -1.85130095      -0.00000000       113.152184      -1.56987739    
   0.00000000       0.00000000       0.00000000       113.152184      -1.56987739    
 -0.330799997      -1.87605906      -0.00000000       113.152184      -1.56987739    
   0.00000000       0.00000000       0.00000000       150.129028      -1.56722093    
 -0.449120998      -1.85130095      -0.00000000       150.129028      -1.56722093    
 -0.507632971      -1.83611906      -0.00000000       150.129028      -1.56722093    
 -0.565632999      -1.81908906      -0.00000000       150.129028      -1.56722093    
 -0.271109998      -1.88560998      -0.00000000       77.0715179      -1.57565844    
 -0.330799997      -1.87605906      -0.00000000       77.0715179      -1.57565844    
   0.00000000       0.00000000       0.00000000       77.0715179      -1.57565844    
 -0.211146995      -1.89326203      -0.00000000       77.0715179      -1.57565844    
  -3.02249994E-02  -1.90476000      -0.00000000       6.03552485      -1.80340624    
  -9.06440020E-02  -1.90284204      -0.00000000       6.03552485      -1.80340624    
   0.00000000       0.00000000       0.00000000       6.03552485      -1.80340624    
   3.02249994E-02  -1.90476000      -0.00000000       6.03552485      -1.80340624    
   0.00000000       0.00000000       0.00000000       41.4926910      -1.59202254    
  -9.06440020E-02  -1.90284204      -0.00000000       41.4926910      -1.59202254    
 -0.150970995      -1.89900804      -0.00000000       41.4926910      -1.59202254    
 -0.211146995      -1.89326203      -0.00000000       41.4926910      -1.59202254    
   9.06440020E-02  -1.90284204      -0.00000000       29.8076515       1.63466191    
   3.02249994E-02  -1.90476000      -0.00000000       29.8076515       1.63466191    
   0.00000000       0.00000000       0.00000000       29.8076515       1.63466191    
  0.150970995      -1.89900804      -0.00000000       29.8076515       1.63466191    
  0.330799997      -1.87605906      -0.00000000       101.239731       1.59943235    
  0.271109998      -1.88560998      -0.00000000       101.239731       1.59943235    
   0.00000000       0.00000000       0.00000000       101.239731       1.59943235    
  0.390157014      -1.86461902      -0.00000000       101.239731       1.59943235    
   0.00000000       0.00000000       0.00000000       65.4075699       1.60762477    
  0.271109998      -1.88560998      -0.00000000       65.4075699       1.60762477    
  0.211146995      -1.89326203      -0.00000000       65.4075699       1.60762477    
  0.150970995      -1.89900804      -0.00000000       65.4075699       1.60762477    
  0.449120998      -1.85130095      -0.00000000       137.805222       1.59511256    
  0.390157014      -1.86461902      -0.00000000       137.805222       1.59511256    
   0.00000000       0.00000000       0.00000000       137.805222       1.59511256    
  0.507632971      -1.83611906      -0.00000000       137.805222       1.59511256    
  0.679867983      -1.77955198      -0.00000000       213.953918       1.58985424    
  0.623063982      -1.80022705      -0.00000000       213.953918       1.58985424    
   0.00000000       0.00000000       0.00000000       213.953918       1.58985424    
  0.735987008      -1.75708497      -0.00000000       213.953918       1.58985424    
   0.00000000       0.00000000       0.00000000       175.258850       1.59220243    
  0.623063982      -1.80022705      -0.00000000       175.258850       1.59220243    
  0.565632999      -1.81908906      -0.00000000       175.258850       1.59220243    
  0.507632971      -1.83611906      -0.00000000       175.258850       1.59220243    
  0.791365981      -1.73284900      -0.00000000       254.660690       1.58764386    
  0.735987008      -1.75708497      -0.00000000       254.660690       1.58764386    
   0.00000000       0.00000000       0.00000000       254.660690       1.58764386    
  0.845947027      -1.70686805      -0.00000000       254.660690       1.58764386    
   1.00436401      -1.61872697      -0.00000000       343.208008       1.58326852    
  0.952499986      -1.64977801      -0.00000000       343.208008       1.58326852    
   0.00000000       0.00000000       0.00000000       343.208008       1.58326852    
   1.05521798      -1.58604598      -0.00000000       343.208008       1.58326852    
   0.00000000       0.00000000       0.00000000       297.706207       1.58546436    
  0.952499986      -1.64977801      -0.00000000       297.706207       1.58546436    
  0.899676025      -1.67916906      -0.00000000       297.706207       1.58546436    
  0.845947027      -1.70686805      -0.00000000       297.706207       1.58546436    
   1.10500801      -1.55176699      -0.00000000       390.474396       1.58114457    
   1.05521798      -1.58604598      -0.00000000       390.474396       1.58114457    
   0.00000000       0.00000000       0.00000000       390.474396       1.58114457    
   1.15368605      -1.51592600      -0.00000000       390.474396       1.58114457    
   1.29255998      -1.39939702      -0.00000000       483.774719       1.57758677    
   1.24750996      -1.43970299      -0.00000000       483.774719       1.57758677    
   0.00000000       0.00000000       0.00000000       483.774719       1.57758677    
   1.33631003      -1.35768199      -0.00000000       483.774719       1.57758677    
   0.00000000       0.00000000       0.00000000       438.418304       1.57916510    
   1.24750996      -1.43970299      -0.00000000       438.418304       1.57916510    
   1.20120299      -1.47855902      -0.00000000       438.418304       1.57916510    