 VARIABLES="X" "Y" "Z" "abs(p) (Pa)" "angle(p) (rad)"
ZONE N=    802,E =     800, F=FEPOINT, ET=QUADRILATERAL
   1.90499997       0.00000000      -0.00000000       246.701096       1.57087684    
   1.90404105      -6.04420006E-02  -0.00000000       246.701096       1.57087684    
   0.00000000       0.00000000       0.00000000       246.701096       1.57087684    
   1.90404105       6.04420006E-02  -0.00000000       246.701096       1.57087684    
   1.88967395      0.241159007      -0.00000000       246.289398       1.57087696    
   1.89637399      0.181081995      -0.00000000       246.289398       1.57087696    
   0.00000000       0.00000000       0.00000000       246.289398       1.57087696    
   1.88107097      0.300992996      -0.00000000       246.289398       1.57087696    
   0.00000000       0.00000000       0.00000000       246.570496       1.57087684    
   1.89637399      0.181081995      -0.00000000       246.570496       1.57087684    
   1.90116501      0.120823003      -0.00000000       246.570496       1.57087684    
   1.90404105       6.04420006E-02  -0.00000000       246.570496       1.57087684    
   1.87057400      0.360523999      -0.00000000       245.976089       1.57087708    
   1.88107097      0.300992996      -0.00000000       245.976089       1.57087708    
   0.00000000       0.00000000       0.00000000       245.976089       1.57087708    
   1.85819399      0.419692010      -0.00000000       245.976089       1.57087708    
   1.80988598      0.594424009      -0.00000000       245.790390       1.57087708    
   1.82783401      0.536701024      -0.00000000       245.790390       1.57087708    
   0.00000000       0.00000000       0.00000000       245.790390       1.57087708    
   1.79011405      0.651548028      -0.00000000       245.790390       1.57087708    
   0.00000000       0.00000000       0.00000000       245.711304       1.57087719    
   1.82783401      0.536701024      -0.00000000       245.711304       1.57087719    
   1.84394205      0.478437006      -0.00000000       245.711304       1.57087719    
   1.85819399      0.419692010      -0.00000000       245.711304       1.57087719    
   1.76854098      0.708016992      -0.00000000       246.385193       1.57087696    
   1.79011405      0.651548028      -0.00000000       246.385193       1.57087696    
   0.00000000       0.00000000       0.00000000       246.385193       1.57087696    
   1.74518704      0.763773024      -0.00000000       246.385193       1.57087696    
   1.66468298      0.926204979      -0.00000000       249.407028       1.57087600    
   1.69323206      0.872922003      -0.00000000       249.407028       1.57087600    
   0.00000000       0.00000000       0.00000000       249.407028       1.57087600    
   1.63445795      0.978555024      -0.00000000       249.407028       1.57087600    
   0.00000000       0.00000000       0.00000000       247.576141       1.57087660    
   1.69323206      0.872922003      -0.00000000       247.576141       1.57087660    
   1.72007501      0.818759024      -0.00000000       247.576141       1.57087660    
   1.74518704      0.763773024      -0.00000000       247.576141       1.57087660    
   1.60258806       1.02992105      -0.00000000       251.697403       1.57087517    
   1.63445795      0.978555024      -0.00000000       251.697403       1.57087517    
   0.00000000       0.00000000       0.00000000       251.697403       1.57087517    
   1.56910396       1.08024895      -0.00000000       251.697403       1.57087517    
   1.45931494       1.22450995      -0.00000000       254.682892       1.57087433    
   1.49743104       1.17759299      -0.00000000       254.682892       1.57087433    
   0.00000000       0.00000000       0.00000000       254.682892       1.57087433    
   1.41972899       1.27019501      -0.00000000       254.682892       1.57087433    
   0.00000000       0.00000000       0.00000000       253.842804       1.57087457    
   1.49743104       1.17759299      -0.00000000       253.842804       1.57087457    
   1.53403997       1.12949002      -0.00000000       253.842804       1.57087457    
   1.56910396       1.08024895      -0.00000000       253.842804       1.57087457    
   1.37871301       1.31459999      -0.00000000       249.803879       1.57087576    
   1.41972899       1.27019501      -0.00000000       249.803879       1.57087576    
   0.00000000       0.00000000       0.00000000       249.803879       1.57087576    
   1.33631003       1.35768199      -0.00000000       249.803879       1.57087576    
   1.20120299       1.47855902      -0.00000000       211.260574       1.57089031    
   1.24750996       1.43970299      -0.00000000       211.260574       1.57089031    
   0.00000000       0.00000000       0.00000000       211.260574       1.57089031    
   1.15368605       1.51592600      -0.00000000       211.260574       1.57089031    
   0.00000000       0.00000000       0.00000000       233.435608       1.57088137    
   1.24750996       1.43970299      -0.00000000       233.435608       1.57088137    
   1.29255998       1.39939702      -0.00000000       233.435608       1.57088137    
   1.33631003       1.35768199      -0.00000000       233.435608       1.57088137    
   1.10500801       1.55176699      -0.00000000       188.263000       1.57090175    
   1.15368605       1.51592600      -0.00000000       188.263000       1.57090175    
   0.00000000       0.00000000       0.00000000       188.263000       1.57090175    
   1.05521798       1.58604598      -0.00000000       188.263000       1.57090175    
  0.899676025       1.67916906      -0.00000000       144.092072       1.57093418    
  0.952499986       1.64977801      -0.00000000       144.092072       1.57093418    
   0.00000000       0.00000000       0.00000000       144.092072       1.57093418    
  0.845947027       1.70686805      -0.00000000       144.092072       1.57093418    
   0.00000000       0.00000000       0.00000000       165.741287       1.57091618    
  0.952499986       1.64977801      -0.00000000       165.741287       1.57091618    
   1.00436401       1.61872697      -0.00000000       165.741287       1.57091618    
   1.05521798       1.58604598      -0.00000000       165.741287       1.57091618    
  0.791365981       1.73284900      -0.00000000       123.391998       1.57095730    
  0.845947027       1.70686805      -0.00000000       123.391998       1.57095730    
   0.00000000       0.00000000       0.00000000       123.391998       1.57095730    
  0.735987008       1.75708497      -0.00000000       123.391998       1.57095730    
  0.565632999       1.81908906      -0.00000000       84.7975311       1.57103050    
  0.623063982       1.80022705      -0.00000000       84.7975311       1.57103050    
   0.00000000       0.00000000       0.00000000       84.7975311       1.57103050    
  0.507632971       1.83611906      -0.00000000       84.7975311       1.57103050    
   0.00000000       0.00000000       0.00000000       103.683456       1.57098782    
  0.623063982       1.80022705      -0.00000000       103.683456       1.57098782    
  0.679867983       1.77955198      -0.00000000       103.683456       1.57098782    
  0.735987008       1.75708497      -0.00000000       103.683456       1.57098782    
  0.449120998       1.85130095      -0.00000000       66.5374374       1.57109475    
  0.507632971       1.83611906      -0.00000000       66.5374374       1.57109475    
   0.00000000       0.00000000       0.00000000       66.5374374       1.57109475    
  0.390157014       1.86461902      -0.00000000       66.5374374       1.57109475    
  0.211146995       1.89326203      -0.00000000       31.1416111       1.57143390    
  0.271109998       1.88560998      -0.00000000       31.1416111       1.57143390    
   0.00000000       0.00000000       0.00000000       31.1416111       1.57143390    
  0.150970995       1.89900804      -0.00000000       31.1416111       1.57143390    
   0.00000000       0.00000000       0.00000000       48.6847420       1.57120419    
  0.271109998       1.88560998      -0.00000000       48.6847420       1.57120419    
  0.330799997       1.87605906      -0.00000000       48.6847420       1.57120419    
  0.390157014       1.86461902      -0.00000000       48.6847420       1.57120419    
   9.06440020E-02   1.90284204      -0.00000000       13.7657309       1.57223868    
  0.150970995       1.89900804      -0.00000000       13.7657309       1.57223868    
   0.00000000       0.00000000       0.00000000       13.7657309       1.57223868    
   3.02249994E-02   1.90476000      -0.00000000       13.7657309       1.57223868    
 -0.150970995       1.89900804      -0.00000000       20.9604931      -1.57174361    
  -9.06440020E-02   1.90284204      -0.00000000       20.9604931      -1.57174361    
   0.00000000       0.00000000       0.00000000       20.9604931      -1.57174361    
 -0.211146995       1.89326203      -0.00000000       20.9604931      -1.57174361    
   0.00000000       0.00000000       0.00000000       3.58792663      -1.57632995    
  -9.06440020E-02   1.90284204      -0.00000000       3.58792663      -1.57632995    
  -3.02249994E-02   1.90476000      -0.00000000       3.58792663      -1.57632995    
   3.02249994E-02   1.90476000      -0.00000000       3.58792663      -1.57632995    
 -0.271109998       1.88560998      -0.00000000       38.5219421      -1.57131171    
 -0.211146995       1.89326203      -0.00000000       38.5219421      -1.57131171    
   0.00000000       0.00000000       0.00000000       38.5219421      -1.57131171    
 -0.330799997       1.87605906      -0.00000000       38.5219421      -1.57131171    
 -0.507632971       1.83611906      -0.00000000       74.7304535      -1.57106197    
 -0.449120998       1.85130095      -0.00000000       74.7304535      -1.57106197    
   0.00000000       0.00000000       0.00000000       74.7304535      -1.57106197    
 -0.565632999       1.81908906      -0.00000000       74.7304535      -1.57106197    
   0.00000000       0.00000000       0.00000000       56.4053574      -1.57114828    
 -0.449120998       1.85130095      -0.00000000       56.4053574      -1.57114828    
 -0.390157014       1.86461902      -0.00000000       56.4053574      -1.57114828    
 -0.330799997       1.87605906      -0.00000000       56.4053574      -1.57114828    
 -0.623063982       1.80022705      -0.00000000       93.7507095      -1.57100809    
 -0.565632999       1.81908906      -0.00000000       93.7507095      -1.57100809    
   0.00000000       0.00000000       0.00000000       93.7507095      -1.57100809    
 -0.679867983       1.77955198      -0.00000000       93.7507095      -1.57100809    
 -0.845947027       1.70686805      -0.00000000       134.228516      -1.57094419    
 -0.791365981       1.73284900      -0.00000000       134.228516      -1.57094419    
   0.00000000       0.00000000       0.00000000       134.228516      -1.57094419    
 -0.899676025       1.67916906      -0.00000000       134.228516      -1.57094419    
   0.00000000       0.00000000       0.00000000       113.580612      -1.57097113    
 -0.791365981       1.73284900      -0.00000000       113.580612      -1.57097113    
 -0.735987008       1.75708497      -0.00000000       113.580612      -1.57097113    
 -0.679867983       1.77955198      -0.00000000       113.580612      -1.57097113    
 -0.952499986       1.64977801      -0.00000000       155.701141      -1.57092381    
 -0.899676025       1.67916906      -0.00000000       155.701141      -1.57092381    
   0.00000000       0.00000000       0.00000000       155.701141      -1.57092381    
  -1.00436401       1.61872697      -0.00000000       155.701141      -1.57092381    
  -1.15368605       1.51592600      -0.00000000       200.052689      -1.57089555    
  -1.10500801       1.55176699      -0.00000000       200.052689      -1.57089555    
   0.00000000       0.00000000       0.00000000       200.052689      -1.57089555    
  -1.20120299       1.47855902      -0.00000000       200.052689      -1.57089555    
   0.00000000       0.00000000       0.00000000       177.841171      -1.57090795    
  -1.10500801       1.55176699      -0.00000000       177.841171      -1.57090795    
  -1.05521798       1.58604598      -0.00000000       177.841171      -1.57090795    
  -1.00436401       1.61872697      -0.00000000       177.841171      -1.57090795    
  -1.24750996       1.43970299      -0.00000000       221.203323      -1.57088602    
  -1.20120299       1.47855902      -0.00000000       221.203323      -1.57088602    
   0.00000000       0.00000000       0.00000000       221.203323      -1.57088602    
  -1.29255998       1.39939702      -0.00000000       221.203323      -1.57088602    
  -1.41972899       1.27019501      -0.00000000       241.462112      -1.57087851    
  -1.37871301       1.31459999      -0.00000000       241.462112      -1.57087851    
   0.00000000       0.00000000       0.00000000       241.462112      -1.57087851    
  -1.45931494       1.22450995      -0.00000000       241.462112      -1.57087851    
   0.00000000       0.00000000       0.00000000       236.883194      -1.57088017    
  -1.37871301       1.31459999      -0.00000000       236.883194      -1.57088017    
  -1.33631003       1.35768199      -0.00000000       236.883194      -1.57088017    
  -1.29255998       1.39939702      -0.00000000       236.883194      -1.57088017    
  -1.49743104       1.17759299      -0.00000000       240.351105      -1.57087886    
  -1.45931494       1.22450995      -0.00000000       240.351105      -1.57087886    
   0.00000000       0.00000000       0.00000000       240.351105      -1.57087886    
  -1.53403997       1.12949002      -0.00000000       240.351105      -1.57087886    
  -1.63445795      0.978555024      -0.00000000       236.441666      -1.57088029    
  -1.60258806       1.02992105      -0.00000000       236.441666      -1.57088029    
   0.00000000       0.00000000       0.00000000       236.441666      -1.57088029    
  -1.66468298      0.926204979      -0.00000000       236.441666      -1.57088029    
   0.00000000       0.00000000       0.00000000       238.275177      -1.57087958    
  -1.60258806       1.02992105      -0.00000000       238.275177      -1.57087958    
  -1.56910396       1.08024895      -0.00000000       238.275177      -1.57087958    
  -1.53403997       1.12949002      -0.00000000       238.275177      -1.57087958    
  -1.69323206      0.872922003      -0.00000000       235.209412      -1.57088077    
  -1.66468298      0.926204979      -0.00000000       235.209412      -1.57088077    
   0.00000000       0.00000000       0.00000000       235.209412      -1.57088077    
  -1.72007501      0.818759024      -0.00000000       235.209412      -1.57088077    
  -1.79011405      0.651548028      -0.00000000       234.845657      -1.57088089    
  -1.76854098      0.708016992      -0.00000000       234.845657      -1.57088089    
   0.00000000       0.00000000       0.00000000       234.845657      -1.57088089    
  -1.80988598      0.594424009      -0.00000000       234.845657      -1.57088089    
   0.00000000       0.00000000       0.00000000       234.697220      -1.57088089    
  -1.76854098      0.708016992      -0.00000000       234.697220      -1.57088089    
  -1.74518704      0.763773024      -0.00000000       234.697220      -1.57088089    
  -1.72007501      0.818759024      -0.00000000       234.697220      -1.57088089    
  -1.82783401      0.536701024      -0.00000000       235.431915      -1.57088065    
  -1.80988598      0.594424009      -0.00000000       235.431915      -1.57088065    
   0.00000000       0.00000000       0.00000000       235.431915      -1.57088065    
  -1.84394205      0.478437006      -0.00000000       235.431915      -1.57088065    
  -1.88107097      0.300992996      -0.00000000       236.993454      -1.57088006    
  -1.87057400      0.360523999      -0.00000000       236.993454      -1.57088006    
   0.00000000       0.00000000       0.00000000       236.993454      -1.57088006    
  -1.88967395      0.241159007      -0.00000000       236.993454      -1.57088006    
   0.00000000       0.00000000       0.00000000       236.233337      -1.57088041    
  -1.87057400      0.360523999      -0.00000000       236.233337      -1.57088041    
  -1.85819399      0.419692010      -0.00000000       236.233337      -1.57088041    
  -1.84394205      0.478437006      -0.00000000       236.233337      -1.57088041    
  -1.89637399      0.181081995      -0.00000000       237.675125      -1.57087982    
  -1.88967395      0.241159007      -0.00000000       237.675125      -1.57087982    
   0.00000000       0.00000000       0.00000000       237.675125      -1.57087982    
  -1.90116501      0.120823003      -0.00000000       237.675125      -1.57087982    
  -1.90404105      -6.04420006E-02  -0.00000000       238.112976      -1.57087970    
  -1.90499997       0.00000000      -0.00000000       238.112976      -1.57087970    
   0.00000000       0.00000000       0.00000000       238.112976      -1.57087970    
  -1.90116501     -0.120823003      -0.00000000       238.112976      -1.57087970    
   0.00000000       0.00000000       0.00000000       238.084320      -1.57087970    
  -1.90499997       0.00000000      -0.00000000       238.084320      -1.57087970    
  -1.90404105       6.04420006E-02  -0.00000000       238.084320      -1.57087970    
  -1.90116501      0.120823003      -0.00000000       238.084320      -1.57087970    
  -1.89637399     -0.181081995      -0.00000000       237.803299      -1.57087982    
  -1.90116501     -0.120823003      -0.00000000       237.803299      -1.57087982    
   0.00000000       0.00000000       0.00000000       237.803299      -1.57087982    
  -1.88967395     -0.241159007      -0.00000000       237.803299      -1.57087982    
  -1.85819399     -0.419692010      -0.00000000       236.800842      -1.57088017    
  -1.87057400     -0.360523999      -0.00000000       236.800842      -1.57088017    
   0.00000000       0.00000000       0.00000000       236.800842      -1.57088017    
  -1.84394205     -0.478437006      -0.00000000       236.800842      -1.57088017    
   0.00000000       0.00000000       0.00000000       237.345306      -1.57087994    
  -1.87057400     -0.360523999      -0.00000000       237.345306      -1.57087994    
  -1.88107097     -0.300992996      -0.00000000       237.345306      -1.57087994    
  -1.88967395     -0.241159007      -0.00000000       237.345306      -1.57087994    
  -1.82783401     -0.536701024      -0.00000000       236.268265      -1.57088029    
  -1.84394205     -0.478437006      -0.00000000       236.268265      -1.57088029    
   0.00000000       0.00000000       0.00000000       236.268265      -1.57088029    
  -1.80988598     -0.594424009      -0.00000000       236.268265      -1.57088029    
  -1.74518704     -0.763773024      -0.00000000       236.311554      -1.57088029    
  -1.76854098     -0.708016992      -0.00000000       236.311554      -1.57088029    
   0.00000000       0.00000000       0.00000000       236.311554      -1.57088029    
  -1.72007501     -0.818759024      -0.00000000       236.311554      -1.57088029    
   0.00000000       0.00000000       0.00000000       236.054230      -1.57088041    
  -1.76854098     -0.708016992      -0.00000000       236.054230      -1.57088041    
  -1.79011405     -0.651548028      -0.00000000       236.054230      -1.57088041    
  -1.80988598     -0.594424009      -0.00000000       236.054230      -1.57088041    
  -1.69323206     -0.872922003      -0.00000000       237.140305      -1.57088006    
  -1.72007501     -0.818759024      -0.00000000       237.140305      -1.57088006    
   0.00000000       0.00000000       0.00000000       237.140305      -1.57088006    
  -1.66468298     -0.926204979      -0.00000000       237.140305      -1.57088006    
  -1.56910396      -1.08024895      -0.00000000       240.316040      -1.57087898    
  -1.60258806      -1.02992105      -0.00000000       240.316040      -1.57087898    
   0.00000000       0.00000000       0.00000000       240.316040      -1.57087898    
  -1.53403997      -1.12949002      -0.00000000       240.316040      -1.57087898    
   0.00000000       0.00000000       0.00000000       238.529251      -1.57087958    
  -1.60258806      -1.02992105      -0.00000000       238.529251      -1.57087958    
  -1.63445795     -0.978555024      -0.00000000       238.529251      -1.57087958    
  -1.66468298     -0.926204979      -0.00000000       238.529251      -1.57087958    
  -1.49743104      -1.17759299      -0.00000000       241.929367      -1.57087839    
  -1.53403997      -1.12949002      -0.00000000       241.929367      -1.57087839    
   0.00000000       0.00000000       0.00000000       241.929367      -1.57087839    
  -1.45931494      -1.22450995      -0.00000000       241.929367      -1.57087839    
  -1.33631003      -1.35768199      -0.00000000       236.927063      -1.57088006    
  -1.37871301      -1.31459999      -0.00000000       236.927063      -1.57088006    
   0.00000000       0.00000000       0.00000000       236.927063      -1.57088006    
  -1.29255998      -1.39939702      -0.00000000       236.927063      -1.57088006    
   0.00000000       0.00000000       0.00000000       242.247253      -1.57087827    
  -1.37871301      -1.31459999      -0.00000000       242.247253      -1.57087827    
  -1.41972899      -1.27019501      -0.00000000       242.247253      -1.57087827    
  -1.45931494      -1.22450995      -0.00000000       242.247253      -1.57087827    
  -1.24750996      -1.43970299      -0.00000000       220.466995      -1.57088637    
  -1.29255998      -1.39939702      -0.00000000       220.466995      -1.57088637    
   0.00000000       0.00000000       0.00000000       220.466995      -1.57088637    
  -1.20120299      -1.47855902      -0.00000000       220.466995      -1.57088637    
  -1.05521798      -1.58604598      -0.00000000       175.652664      -1.57090938    
  -1.10500801      -1.55176699      -0.00000000       175.652664      -1.57090938    
   0.00000000       0.00000000       0.00000000       175.652664      -1.57090938    
  -1.00436401      -1.61872697      -0.00000000       175.652664      -1.57090938    
   0.00000000       0.00000000       0.00000000       198.458679      -1.57089639    
  -1.10500801      -1.55176699      -0.00000000       198.458679      -1.57089639    
  -1.15368605      -1.51592600      -0.00000000       198.458679      -1.57089639    
  -1.20120299      -1.47855902      -0.00000000       198.458679      -1.57089639    
 -0.952499986      -1.64977801      -0.00000000       153.295868      -1.57092583    
  -1.00436401      -1.61872697      -0.00000000       153.295868      -1.57092583    
   0.00000000       0.00000000       0.00000000       153.295868      -1.57092583    
 -0.899676025      -1.67916906      -0.00000000       153.295868      -1.57092583    
 -0.735987008      -1.75708497      -0.00000000       111.201691      -1.57097483    
 -0.791365981      -1.73284900      -0.00000000       111.201691      -1.57097483    
   0.00000000       0.00000000       0.00000000       111.201691      -1.57097483    
 -0.679867983      -1.77955198      -0.00000000       111.201691      -1.57097483    
   0.00000000       0.00000000       0.00000000       131.785217      -1.57094693    
 -0.791365981      -1.73284900      -0.00000000       131.785217      -1.57094693    
 -0.845947027      -1.70686805      -0.00000000       131.785217      -1.57094693    
 -0.899676025      -1.67916906      -0.00000000       131.785217      -1.57094693    
 -0.623063982      -1.80022705      -0.00000000       91.5939178      -1.57101309    
 -0.679867983      -1.77955198      -0.00000000       91.5939178      -1.57101309    
   0.00000000       0.00000000       0.00000000       91.5939178      -1.57101309    
 -0.565632999      -1.81908906      -0.00000000       91.5939178      -1.57101309    
 -0.390157014      -1.86461902      -0.00000000       54.6166992      -1.57115984    
 -0.449120998      -1.85130095      -0.00000000       54.6166992      -1.57115984    
   0.00000000       0.00000000       0.00000000       54.6166992      -1.57115984    
 -0.330799997      -1.87605906      -0.00000000       54.6166992      -1.57115984    
   0.00000000       0.00000000       0.00000000       72.7989426      -1.57106900    
 -0.449120998      -1.85130095      -0.00000000       72.7989426      -1.57106900    
 -0.507632971      -1.83611906      -0.00000000       72.7989426      -1.57106900    
 -0.565632999      -1.81908906      -0.00000000       72.7989426      -1.57106900    
 -0.271109998      -1.88560998      -0.00000000       36.8269997      -1.57133543    
 -0.330799997      -1.87605906      -0.00000000       36.8269997      -1.57133543    
   0.00000000       0.00000000       0.00000000       36.8269997      -1.57133543    
 -0.211146995      -1.89326203      -0.00000000       36.8269997      -1.57133543    
  -3.02249994E-02  -1.90476000      -0.00000000       1.97858572      -1.58083153    
  -9.06440020E-02  -1.90284204      -0.00000000       1.97858572      -1.58083153    
   0.00000000       0.00000000       0.00000000       1.97858572      -1.58083153    
   3.02249994E-02  -1.90476000      -0.00000000       1.97858572      -1.58083153    
   0.00000000       0.00000000       0.00000000       19.3326607      -1.57182336    
  -9.06440020E-02  -1.90284204      -0.00000000       19.3326607      -1.57182336    
 -0.150970995      -1.89900804      -0.00000000       19.3326607      -1.57182336    
 -0.211146995      -1.89326203      -0.00000000       19.3326607      -1.57182336    
   9.06440020E-02  -1.90284204      -0.00000000       15.3828926       1.57208705    
   3.02249994E-02  -1.90476000      -0.00000000       15.3828926       1.57208705    
   0.00000000       0.00000000       0.00000000       15.3828926       1.57208705    
  0.150970995      -1.89900804      -0.00000000       15.3828926       1.57208705    
  0.330799997      -1.87605906      -0.00000000       50.4186363       1.57119012    
  0.271109998      -1.88560998      -0.00000000       50.4186363       1.57119012    
   0.00000000       0.00000000       0.00000000       50.4186363       1.57119012    
  0.390157014      -1.86461902      -0.00000000       50.4186363       1.57119012    
   0.00000000       0.00000000       0.00000000       32.7947350       1.57140183    
  0.271109998      -1.88560998      -0.00000000       32.7947350       1.57140183    
  0.211146995      -1.89326203      -0.00000000       32.7947350       1.57140183    
  0.150970995      -1.89900804      -0.00000000       32.7947350       1.57140183    
  0.449120998      -1.85130095      -0.00000000       68.3895721       1.57108665    
  0.390157014      -1.86461902      -0.00000000       68.3895721       1.57108665    
   0.00000000       0.00000000       0.00000000       68.3895721       1.57108665    
  0.507632971      -1.83611906      -0.00000000       68.3895721       1.57108665    
  0.679867983      -1.77955198      -0.00000000       105.950356       1.57098377    
  0.623063982      -1.80022705      -0.00000000       105.950356       1.57098377    
   0.00000000       0.00000000       0.00000000       105.950356       1.57098377    
  0.735987008      -1.75708497      -0.00000000       105.950356       1.57098377    
   0.00000000       0.00000000       0.00000000       86.8142395       1.57102501    
  0.623063982      -1.80022705      -0.00000000       86.8142395       1.57102501    
  0.565632999      -1.81908906      -0.00000000       86.8142395       1.57102501    
  0.507632971      -1.83611906      -0.00000000       86.8142395       1.57102501    
  0.791365981      -1.73284900      -0.00000000       125.904846       1.57095408    
  0.735987008      -1.75708497      -0.00000000       125.904846       1.57095408    
   0.00000000       0.00000000       0.00000000       125.904846       1.57095408    
  0.845947027      -1.70686805      -0.00000000       125.904846       1.57095408    
   1.00436401      -1.61872697      -0.00000000       168.322662       1.57091427    
  0.952499986      -1.64977801      -0.00000000       168.322662       1.57091427    
   0.00000000       0.00000000       0.00000000       168.322662       1.57091427    
   1.05521798      -1.58604598      -0.00000000       168.322662       1.57091427    
   0.00000000       0.00000000       0.00000000       146.691925       1.57093167    
  0.952499986      -1.64977801      -0.00000000       146.691925       1.57093167    
  0.899676025      -1.67916906      -0.00000000       146.691925       1.57093167    
  0.845947027      -1.70686805      -0.00000000       146.691925       1.57093167    
   1.10500801      -1.55176699      -0.00000000       190.644608       1.57090044    
   1.05521798      -1.58604598      -0.00000000       190.644608       1.57090044    
   0.00000000       0.00000000       0.00000000       190.644608       1.57090044    
   1.15368605      -1.51592600      -0.00000000       190.644608       1.57090044    
   1.29255998      -1.39939702      -0.00000000       234.350250       1.57088101    
   1.24750996      -1.43970299      -0.00000000       234.350250       1.57088101    
   0.00000000       0.00000000       0.00000000       234.350250       1.57088101    
   1.33631003      -1.35768199      -0.00000000       234.350250       1.57088101    
   0.00000000       0.00000000       0.00000000       213.061111       1.57088947    
   1.24750996      -1.43970299      -0.00000000       213.061111       1.57088947    
   1.20120299      -1.47855902      -0.00000000       213.061111       1.57088947    