 VARIABLES="X" "Y" "Z" "abs(p) (Pa)" "angle(p) (rad)"
ZONE N=    802,E =     800, F=FEPOINT, ET=QUADRILATERAL
   1.90499997       0.00000000      -0.00000000       2.98265910      -1.58758044    
   1.90404105      -6.04420006E-02  -0.00000000       2.98265910      -1.58758044    
   0.00000000       0.00000000       0.00000000       2.98265910      -1.58758044    
   1.90404105       6.04420006E-02  -0.00000000       2.98265910      -1.58758044    
   1.88967395      0.241159007      -0.00000000       160.653107      -1.57105744    
   1.89637399      0.181081995      -0.00000000       160.653107      -1.57105744    
   0.00000000       0.00000000       0.00000000       160.653107      -1.57105744    
   1.88107097      0.300992996      -0.00000000       160.653107      -1.57105744    
   0.00000000       0.00000000       0.00000000       81.4385605      -1.57136071    
   1.89637399      0.181081995      -0.00000000       81.4385605      -1.57136071    
   1.90116501      0.120823003      -0.00000000       81.4385605      -1.57136071    
   1.90404105       6.04420006E-02  -0.00000000       81.4385605      -1.57136071    
   1.87057400      0.360523999      -0.00000000       241.258377      -1.57095373    
   1.88107097      0.300992996      -0.00000000       241.258377      -1.57095373    
   0.00000000       0.00000000       0.00000000       241.258377      -1.57095373    
   1.85819399      0.419692010      -0.00000000       241.258377      -1.57095373    
   1.80988598      0.594424009      -0.00000000       409.499176      -1.57087171    
   1.82783401      0.536701024      -0.00000000       409.499176      -1.57087171    
   0.00000000       0.00000000       0.00000000       409.499176      -1.57087171    
   1.79011405      0.651548028      -0.00000000       409.499176      -1.57087171    
   0.00000000       0.00000000       0.00000000       323.830292      -1.57090235    
   1.82783401      0.536701024      -0.00000000       323.830292      -1.57090235    
   1.84394205      0.478437006      -0.00000000       323.830292      -1.57090235    
   1.85819399      0.419692010      -0.00000000       323.830292      -1.57090235    
   1.76854098      0.708016992      -0.00000000       498.931793      -1.57085240    
   1.79011405      0.651548028      -0.00000000       498.931793      -1.57085240    
   0.00000000       0.00000000       0.00000000       498.931793      -1.57085240    
   1.74518704      0.763773024      -0.00000000       498.931793      -1.57085240    
   1.66468298      0.926204979      -0.00000000       688.923096      -1.57082999    
   1.69323206      0.872922003      -0.00000000       688.923096      -1.57082999    
   0.00000000       0.00000000       0.00000000       688.923096      -1.57082999    
   1.63445795      0.978555024      -0.00000000       688.923096      -1.57082999    
   0.00000000       0.00000000       0.00000000       592.100159      -1.57083881    
   1.69323206      0.872922003      -0.00000000       592.100159      -1.57083881    
   1.72007501      0.818759024      -0.00000000       592.100159      -1.57083881    
   1.74518704      0.763773024      -0.00000000       592.100159      -1.57083881    
   1.60258806       1.02992105      -0.00000000       788.549866      -1.57082403    
   1.63445795      0.978555024      -0.00000000       788.549866      -1.57082403    
   0.00000000       0.00000000       0.00000000       788.549866      -1.57082403    
   1.56910396       1.08024895      -0.00000000       788.549866      -1.57082403    
   1.45931494       1.22450995      -0.00000000       983.947205      -1.57081628    
   1.49743104       1.17759299      -0.00000000       983.947205      -1.57081628    
   0.00000000       0.00000000       0.00000000       983.947205      -1.57081628    
   1.41972899       1.27019501      -0.00000000       983.947205      -1.57081628    
   0.00000000       0.00000000       0.00000000       888.673096      -1.57081950    
   1.49743104       1.17759299      -0.00000000       888.673096      -1.57081950    
   1.53403997       1.12949002      -0.00000000       888.673096      -1.57081950    
   1.56910396       1.08024895      -0.00000000       888.673096      -1.57081950    
   1.37871301       1.31459999      -0.00000000       1054.86487      -1.57081282    
   1.41972899       1.27019501      -0.00000000       1054.86487      -1.57081282    
   0.00000000       0.00000000       0.00000000       1054.86487      -1.57081282    
   1.33631003       1.35768199      -0.00000000       1054.86487      -1.57081282    
   1.20120299       1.47855902      -0.00000000       1072.15918      -1.57080126    
   1.24750996       1.43970299      -0.00000000       1072.15918      -1.57080126    
   0.00000000       0.00000000       0.00000000       1072.15918      -1.57080126    
   1.15368605       1.51592600      -0.00000000       1072.15918      -1.57080126    
   0.00000000       0.00000000       0.00000000       1076.31250      -1.57080758    
   1.24750996       1.43970299      -0.00000000       1076.31250      -1.57080758    
   1.29255998       1.39939702      -0.00000000       1076.31250      -1.57080758    
   1.33631003       1.35768199      -0.00000000       1076.31250      -1.57080758    
   1.10500801       1.55176699      -0.00000000       1063.66406      -1.57079530    
   1.15368605       1.51592600      -0.00000000       1063.66406      -1.57079530    
   0.00000000       0.00000000       0.00000000       1063.66406      -1.57079530    
   1.05521798       1.58604598      -0.00000000       1063.66406      -1.57079530    
  0.899676025       1.67916906      -0.00000000       1051.67212      -1.57078505    
  0.952499986       1.64977801      -0.00000000       1051.67212      -1.57078505    
   0.00000000       0.00000000       0.00000000       1051.67212      -1.57078505    
  0.845947027       1.70686805      -0.00000000       1051.67212      -1.57078505    
   0.00000000       0.00000000       0.00000000       1056.31921      -1.57078981    
  0.952499986       1.64977801      -0.00000000       1056.31921      -1.57078981    
   1.00436401       1.61872697      -0.00000000       1056.31921      -1.57078981    
   1.05521798       1.58604598      -0.00000000       1056.31921      -1.57078981    
  0.791365981       1.73284900      -0.00000000       1050.38342      -1.57078099    
  0.845947027       1.70686805      -0.00000000       1050.38342      -1.57078099    
   0.00000000       0.00000000       0.00000000       1050.38342      -1.57078099    
  0.735987008       1.75708497      -0.00000000       1050.38342      -1.57078099    
  0.565632999       1.81908906      -0.00000000       1056.06470      -1.57077491    
  0.623063982       1.80022705      -0.00000000       1056.06470      -1.57077491    
   0.00000000       0.00000000       0.00000000       1056.06470      -1.57077491    
  0.507632971       1.83611906      -0.00000000       1056.06470      -1.57077491    
   0.00000000       0.00000000       0.00000000       1052.22937      -1.57077754    
  0.623063982       1.80022705      -0.00000000       1052.22937      -1.57077754    
  0.679867983       1.77955198      -0.00000000       1052.22937      -1.57077754    
  0.735987008       1.75708497      -0.00000000       1052.22937      -1.57077754    
  0.449120998       1.85130095      -0.00000000       1060.88171      -1.57077301    
  0.507632971       1.83611906      -0.00000000       1060.88171      -1.57077301    
   0.00000000       0.00000000       0.00000000       1060.88171      -1.57077301    
  0.390157014       1.86461902      -0.00000000       1060.88171      -1.57077301    
  0.211146995       1.89326203      -0.00000000       1069.97485      -1.57077074    
  0.271109998       1.88560998      -0.00000000       1069.97485      -1.57077074    
   0.00000000       0.00000000       0.00000000       1069.97485      -1.57077074    
  0.150970995       1.89900804      -0.00000000       1069.97485      -1.57077074    
   0.00000000       0.00000000       0.00000000       1065.61499      -1.57077157    
  0.271109998       1.88560998      -0.00000000       1065.61499      -1.57077157    
  0.330799997       1.87605906      -0.00000000       1065.61499      -1.57077157    
  0.390157014       1.86461902      -0.00000000       1065.61499      -1.57077157    
   9.06440020E-02   1.90284204      -0.00000000       1073.06409      -1.57077026    
  0.150970995       1.89900804      -0.00000000       1073.06409      -1.57077026    
   0.00000000       0.00000000       0.00000000       1073.06409      -1.57077026    
   3.02249994E-02   1.90476000      -0.00000000       1073.06409      -1.57077026    
 -0.150970995       1.89900804      -0.00000000       1074.39502      -1.57077074    
  -9.06440020E-02   1.90284204      -0.00000000       1074.39502      -1.57077074    
   0.00000000       0.00000000       0.00000000       1074.39502      -1.57077074    
 -0.211146995       1.89326203      -0.00000000       1074.39502      -1.57077074    
   0.00000000       0.00000000       0.00000000       1074.45776      -1.57077014    
  -9.06440020E-02   1.90284204      -0.00000000       1074.45776      -1.57077014    
  -3.02249994E-02   1.90476000      -0.00000000       1074.45776      -1.57077014    
   3.02249994E-02   1.90476000      -0.00000000       1074.45776      -1.57077014    
 -0.271109998       1.88560998      -0.00000000       1073.57080      -1.57077157    
 -0.211146995       1.89326203      -0.00000000       1073.57080      -1.57077157    
   0.00000000       0.00000000       0.00000000       1073.57080      -1.57077157    
 -0.330799997       1.87605906      -0.00000000       1073.57080      -1.57077157    
 -0.507632971       1.83611906      -0.00000000       1071.47363      -1.57077491    
 -0.449120998       1.85130095      -0.00000000       1071.47363      -1.57077491    
   0.00000000       0.00000000       0.00000000       1071.47363      -1.57077491    
 -0.565632999       1.81908906      -0.00000000       1071.47363      -1.57077491    
   0.00000000       0.00000000       0.00000000       1072.44397      -1.57077301    
 -0.449120998       1.85130095      -0.00000000       1072.44397      -1.57077301    
 -0.390157014       1.86461902      -0.00000000       1072.44397      -1.57077301    
 -0.330799997       1.87605906      -0.00000000       1072.44397      -1.57077301    
 -0.623063982       1.80022705      -0.00000000       1071.98083      -1.57077754    
 -0.565632999       1.81908906      -0.00000000       1071.98083      -1.57077754    
   0.00000000       0.00000000       0.00000000       1071.98083      -1.57077754    
 -0.679867983       1.77955198      -0.00000000       1071.98083      -1.57077754    
 -0.845947027       1.70686805      -0.00000000       1080.56909      -1.57078505    
 -0.791365981       1.73284900      -0.00000000       1080.56909      -1.57078505    
   0.00000000       0.00000000       0.00000000       1080.56909      -1.57078505    
 -0.899676025       1.67916906      -0.00000000       1080.56909      -1.57078505    
   0.00000000       0.00000000       0.00000000       1074.93250      -1.57078087    
 -0.791365981       1.73284900      -0.00000000       1074.93250      -1.57078087    
 -0.735987008       1.75708497      -0.00000000       1074.93250      -1.57078087    
 -0.679867983       1.77955198      -0.00000000       1074.93250      -1.57078087    
 -0.952499986       1.64977801      -0.00000000       1088.94373      -1.57078958    
 -0.899676025       1.67916906      -0.00000000       1088.94373      -1.57078958    
   0.00000000       0.00000000       0.00000000       1088.94373      -1.57078958    
  -1.00436401       1.61872697      -0.00000000       1088.94373      -1.57078958    
  -1.15368605       1.51592600      -0.00000000       1108.85156      -1.57080054    
  -1.10500801       1.55176699      -0.00000000       1108.85156      -1.57080054    
   0.00000000       0.00000000       0.00000000       1108.85156      -1.57080054    
  -1.20120299       1.47855902      -0.00000000       1108.85156      -1.57080054    
   0.00000000       0.00000000       0.00000000       1099.13953      -1.57079494    
  -1.10500801       1.55176699      -0.00000000       1099.13953      -1.57079494    
  -1.05521798       1.58604598      -0.00000000       1099.13953      -1.57079494    
  -1.00436401       1.61872697      -0.00000000       1099.13953      -1.57079494    
  -1.24750996       1.43970299      -0.00000000       1112.59192      -1.57080638    
  -1.20120299       1.47855902      -0.00000000       1112.59192      -1.57080638    
   0.00000000       0.00000000       0.00000000       1112.59192      -1.57080638    
  -1.29255998       1.39939702      -0.00000000       1112.59192      -1.57080638    
  -1.41972899       1.27019501      -0.00000000       1017.01044      -1.57081449    
  -1.37871301       1.31459999      -0.00000000       1017.01044      -1.57081449    
   0.00000000       0.00000000       0.00000000       1017.01044      -1.57081449    
  -1.45931494       1.22450995      -0.00000000       1017.01044      -1.57081449    
   0.00000000       0.00000000       0.00000000       1090.39807      -1.57081151    
  -1.37871301       1.31459999      -0.00000000       1090.39807      -1.57081151    
  -1.33631003       1.35768199      -0.00000000       1090.39807      -1.57081151    
  -1.29255998       1.39939702      -0.00000000       1090.39807      -1.57081151    
  -1.49743104       1.17759299      -0.00000000       917.819031      -1.57081711    
  -1.45931494       1.22450995      -0.00000000       917.819031      -1.57081711    
   0.00000000       0.00000000       0.00000000       917.819031      -1.57081711    
  -1.53403997       1.12949002      -0.00000000       917.819031      -1.57081711    
  -1.63445795      0.978555024      -0.00000000       714.160400      -1.57082605    
  -1.60258806       1.02992105      -0.00000000       714.160400      -1.57082605    
   0.00000000       0.00000000       0.00000000       714.160400      -1.57082605    
  -1.66468298      0.926204979      -0.00000000       714.160400      -1.57082605    
   0.00000000       0.00000000       0.00000000       814.941589      -1.57082069    
  -1.60258806       1.02992105      -0.00000000       814.941589      -1.57082069    
  -1.56910396       1.08024895      -0.00000000       814.941589      -1.57082069    
  -1.53403997       1.12949002      -0.00000000       814.941589      -1.57082069    
  -1.69323206      0.872922003      -0.00000000       617.243286      -1.57083380    
  -1.66468298      0.926204979      -0.00000000       617.243286      -1.57083380    
   0.00000000       0.00000000       0.00000000       617.243286      -1.57083380    
  -1.72007501      0.818759024      -0.00000000       617.243286      -1.57083380    
  -1.79011405      0.651548028      -0.00000000       436.694977      -1.57086205    
  -1.76854098      0.708016992      -0.00000000       436.694977      -1.57086205    
   0.00000000       0.00000000       0.00000000       436.694977      -1.57086205    
  -1.80988598      0.594424009      -0.00000000       436.694977      -1.57086205    
   0.00000000       0.00000000       0.00000000       524.731995      -1.57084525    
  -1.76854098      0.708016992      -0.00000000       524.731995      -1.57084525    
  -1.74518704      0.763773024      -0.00000000       524.731995      -1.57084525    
  -1.72007501      0.818759024      -0.00000000       524.731995      -1.57084525    
  -1.82783401      0.536701024      -0.00000000       352.350708      -1.57088745    
  -1.80988598      0.594424009      -0.00000000       352.350708      -1.57088745    
   0.00000000       0.00000000       0.00000000       352.350708      -1.57088745    
  -1.84394205      0.478437006      -0.00000000       352.350708      -1.57088745    
  -1.88107097      0.300992996      -0.00000000       191.055527      -1.57100403    
  -1.87057400      0.360523999      -0.00000000       191.055527      -1.57100403    
   0.00000000       0.00000000       0.00000000       191.055527      -1.57100403    
  -1.88967395      0.241159007      -0.00000000       191.055527      -1.57100403    
   0.00000000       0.00000000       0.00000000       270.750397      -1.57092869    
  -1.87057400      0.360523999      -0.00000000       270.750397      -1.57092869    
  -1.85819399      0.419692010      -0.00000000       270.750397      -1.57092869    
  -1.84394205      0.478437006      -0.00000000       270.750397      -1.57092869    
  -1.89637399      0.181081995      -0.00000000       112.716599      -1.57118404    
  -1.88967395      0.241159007      -0.00000000       112.716599      -1.57118404    
   0.00000000       0.00000000       0.00000000       112.716599      -1.57118404    
  -1.90116501      0.120823003      -0.00000000       112.716599      -1.57118404    
  -1.90404105      -6.04420006E-02  -0.00000000       42.8481102       1.57201254    
  -1.90499997       0.00000000      -0.00000000       42.8481102       1.57201254    
   0.00000000       0.00000000       0.00000000       42.8481102       1.57201254    
  -1.90116501     -0.120823003      -0.00000000       42.8481102       1.57201254    
   0.00000000       0.00000000       0.00000000       34.9397545      -1.57216942    
  -1.90499997       0.00000000      -0.00000000       34.9397545      -1.57216942    
  -1.90404105       6.04420006E-02  -0.00000000       34.9397545      -1.57216942    
  -1.90116501      0.120823003      -0.00000000       34.9397545      -1.57216942    
  -1.89637399     -0.181081995      -0.00000000       120.655670       1.57126260    
  -1.90116501     -0.120823003      -0.00000000       120.655670       1.57126260    
   0.00000000       0.00000000       0.00000000       120.655670       1.57126260    
  -1.88967395     -0.241159007      -0.00000000       120.655670       1.57126260    
  -1.85819399     -0.419692010      -0.00000000       279.557159       1.57102609    
  -1.87057400     -0.360523999      -0.00000000       279.557159       1.57102609    
   0.00000000       0.00000000       0.00000000       279.557159       1.57102609    
  -1.84394205     -0.478437006      -0.00000000       279.557159       1.57102609    
   0.00000000       0.00000000       0.00000000       199.315750       1.57109904    
  -1.87057400     -0.360523999      -0.00000000       199.315750       1.57109904    
  -1.88107097     -0.300992996      -0.00000000       199.315750       1.57109904    
  -1.88967395     -0.241159007      -0.00000000       199.315750       1.57109904    
  -1.82783401     -0.536701024      -0.00000000       361.836884       1.57098413    
  -1.84394205     -0.478437006      -0.00000000       361.836884       1.57098413    
   0.00000000       0.00000000       0.00000000       361.836884       1.57098413    
  -1.80988598     -0.594424009      -0.00000000       361.836884       1.57098413    
  -1.74518704     -0.763773024      -0.00000000       536.281616       1.57093453    
  -1.76854098     -0.708016992      -0.00000000       536.281616       1.57093453    
   0.00000000       0.00000000       0.00000000       536.281616       1.57093453    
  -1.72007501     -0.818759024      -0.00000000       536.281616       1.57093453    
   0.00000000       0.00000000       0.00000000       447.174255       1.57095575    
  -1.76854098     -0.708016992      -0.00000000       447.174255       1.57095575    
  -1.79011405     -0.651548028      -0.00000000       447.174255       1.57095575    
  -1.80988598     -0.594424009      -0.00000000       447.174255       1.57095575    
  -1.69323206     -0.872922003      -0.00000000       629.150269       1.57091808    
  -1.72007501     -0.818759024      -0.00000000       629.150269       1.57091808    
   0.00000000       0.00000000       0.00000000       629.150269       1.57091808    
  -1.66468298     -0.926204979      -0.00000000       629.150269       1.57091808    
  -1.56910396      -1.08024895      -0.00000000       825.688904       1.57089293    
  -1.60258806      -1.02992105      -0.00000000       825.688904       1.57089293    
   0.00000000       0.00000000       0.00000000       825.688904       1.57089293    
  -1.53403997      -1.12949002      -0.00000000       825.688904       1.57089293    
   0.00000000       0.00000000       0.00000000       725.918579       1.57090425    
  -1.60258806      -1.02992105      -0.00000000       725.918579       1.57090425    
  -1.63445795     -0.978555024      -0.00000000       725.918579       1.57090425    
  -1.66468298     -0.926204979      -0.00000000       725.918579       1.57090425    
  -1.49743104      -1.17759299      -0.00000000       925.983459       1.57088339    
  -1.53403997      -1.12949002      -0.00000000       925.983459       1.57088339    
   0.00000000       0.00000000       0.00000000       925.983459       1.57088339    
  -1.45931494      -1.22450995      -0.00000000       925.983459       1.57088339    
  -1.33631003      -1.35768199      -0.00000000       1091.14539       1.57087278    
  -1.37871301      -1.31459999      -0.00000000       1091.14539       1.57087278    
   0.00000000       0.00000000       0.00000000       1091.14539       1.57087278    
  -1.29255998      -1.39939702      -0.00000000       1091.14539       1.57087278    
   0.00000000       0.00000000       0.00000000       1021.26160       1.57087600    
  -1.37871301      -1.31459999      -0.00000000       1021.26160       1.57087600    
  -1.41972899      -1.27019501      -0.00000000       1021.26160       1.57087600    
  -1.45931494      -1.22450995      -0.00000000       1021.26160       1.57087600    
  -1.24750996      -1.43970299      -0.00000000       1109.91577       1.57087612    
  -1.29255998      -1.39939702      -0.00000000       1109.91577       1.57087612    
   0.00000000       0.00000000       0.00000000       1109.91577       1.57087612    
  -1.20120299      -1.47855902      -0.00000000       1109.91577       1.57087612    
  -1.05521798      -1.58604598      -0.00000000       1090.83948       1.57088971    
  -1.10500801      -1.55176699      -0.00000000       1090.83948       1.57088971    
   0.00000000       0.00000000       0.00000000       1090.83948       1.57088971    
  -1.00436401      -1.61872697      -0.00000000       1090.83948       1.57088971    
   0.00000000       0.00000000       0.00000000       1102.55640       1.57088292    
  -1.10500801      -1.55176699      -0.00000000       1102.55640       1.57088292    
  -1.15368605      -1.51592600      -0.00000000       1102.55640       1.57088292    
  -1.20120299      -1.47855902      -0.00000000       1102.55640       1.57088292    
 -0.952499986      -1.64977801      -0.00000000       1080.34509       1.57089615    
  -1.00436401      -1.61872697      -0.00000000       1080.34509       1.57089615    
   0.00000000       0.00000000       0.00000000       1080.34509       1.57089615    
 -0.899676025      -1.67916906      -0.00000000       1080.34509       1.57089615    
 -0.735987008      -1.75708497      -0.00000000       1068.39380       1.57090569    
 -0.791365981      -1.73284900      -0.00000000       1068.39380       1.57090569    
   0.00000000       0.00000000       0.00000000       1068.39380       1.57090569    
 -0.679867983      -1.77955198      -0.00000000       1068.39380       1.57090569    
   0.00000000       0.00000000       0.00000000       1072.63208       1.57090151    
 -0.791365981      -1.73284900      -0.00000000       1072.63208       1.57090151    
 -0.845947027      -1.70686805      -0.00000000       1072.63208       1.57090151    
 -0.899676025      -1.67916906      -0.00000000       1072.63208       1.57090151    
 -0.623063982      -1.80022705      -0.00000000       1067.39294       1.57090914    
 -0.679867983      -1.77955198      -0.00000000       1067.39294       1.57090914    
   0.00000000       0.00000000       0.00000000       1067.39294       1.57090914    
 -0.565632999      -1.81908906      -0.00000000       1067.39294       1.57090914    
 -0.390157014      -1.86461902      -0.00000000       1070.65808       1.57091331    
 -0.449120998      -1.85130095      -0.00000000       1070.65808       1.57091331    
   0.00000000       0.00000000       0.00000000       1070.65808       1.57091331    
 -0.330799997      -1.87605906      -0.00000000       1070.65808       1.57091331    
   0.00000000       0.00000000       0.00000000       1068.49487       1.57091165    
 -0.449120998      -1.85130095      -0.00000000       1068.49487       1.57091165    
 -0.507632971      -1.83611906      -0.00000000       1068.49487       1.57091165    
 -0.565632999      -1.81908906      -0.00000000       1068.49487       1.57091165    
 -0.271109998      -1.88560998      -0.00000000       1072.77539       1.57091439    
 -0.330799997      -1.87605906      -0.00000000       1072.77539       1.57091439    
   0.00000000       0.00000000       0.00000000       1072.77539       1.57091439    
 -0.211146995      -1.89326203      -0.00000000       1072.77539       1.57091439    
  -3.02249994E-02  -1.90476000      -0.00000000       1075.06812       1.57091546    
  -9.06440020E-02  -1.90284204      -0.00000000       1075.06812       1.57091546    
   0.00000000       0.00000000       0.00000000       1075.06812       1.57091546    
   3.02249994E-02  -1.90476000      -0.00000000       1075.06812       1.57091546    
   0.00000000       0.00000000       0.00000000       1074.53528       1.57091522    
  -9.06440020E-02  -1.90284204      -0.00000000       1074.53528       1.57091522    
 -0.150970995      -1.89900804      -0.00000000       1074.53528       1.57091522    
 -0.211146995      -1.89326203      -0.00000000       1074.53528       1.57091522    
   9.06440020E-02  -1.90284204      -0.00000000       1073.90833       1.57091558    
   3.02249994E-02  -1.90476000      -0.00000000       1073.90833       1.57091558    
   0.00000000       0.00000000       0.00000000       1073.90833       1.57091558    
  0.150970995      -1.89900804      -0.00000000       1073.90833       1.57091558    
  0.330799997      -1.87605906      -0.00000000       1067.88110       1.57091463    
  0.271109998      -1.88560998      -0.00000000       1067.88110       1.57091463    
   0.00000000       0.00000000       0.00000000       1067.88110       1.57091463    
  0.390157014      -1.86461902      -0.00000000       1067.88110       1.57091463    
   0.00000000       0.00000000       0.00000000       1071.26917       1.57091534    
  0.271109998      -1.88560998      -0.00000000       1071.26917       1.57091534    
  0.211146995      -1.89326203      -0.00000000       1071.26917       1.57091534    
  0.150970995      -1.89900804      -0.00000000       1071.26917       1.57091534    
  0.449120998      -1.85130095      -0.00000000       1064.16052       1.57091343    
  0.390157014      -1.86461902      -0.00000000       1064.16052       1.57091343    
   0.00000000       0.00000000       0.00000000       1064.16052       1.57091343    
  0.507632971      -1.83611906      -0.00000000       1064.16052       1.57091343    
  0.679867983      -1.77955198      -0.00000000       1058.34204       1.57090950    
  0.623063982      -1.80022705      -0.00000000       1058.34204       1.57090950    
   0.00000000       0.00000000       0.00000000       1058.34204       1.57090950    
  0.735987008      -1.75708497      -0.00000000       1058.34204       1.57090950    
   0.00000000       0.00000000       0.00000000       1060.55469       1.57091188    
  0.623063982      -1.80022705      -0.00000000       1060.55469       1.57091188    
  0.565632999      -1.81908906      -0.00000000       1060.55469       1.57091188    
  0.507632971      -1.83611906      -0.00000000       1060.55469       1.57091188    
  0.791365981      -1.73284900      -0.00000000       1058.46228       1.57090569    
  0.735987008      -1.75708497      -0.00000000       1058.46228       1.57090569    
   0.00000000       0.00000000       0.00000000       1058.46228       1.57090569    
  0.845947027      -1.70686805      -0.00000000       1058.46228       1.57090569    
   1.00436401      -1.61872697      -0.00000000       1066.55640       1.57089615    
  0.952499986      -1.64977801      -0.00000000       1066.55640       1.57089615    
   0.00000000       0.00000000       0.00000000       1066.55640       1.57089615    
   1.05521798      -1.58604598      -0.00000000       1066.55640       1.57089615    
   0.00000000       0.00000000       0.00000000       1061.19238       1.57090139    
  0.952499986      -1.64977801      -0.00000000       1061.19238       1.57090139    
  0.899676025      -1.67916906      -0.00000000       1061.19238       1.57090139    
  0.845947027      -1.70686805      -0.00000000       1061.19238       1.57090139    
   1.10500801      -1.55176699      -0.00000000       1073.68176       1.57089007    
   1.05521798      -1.58604598      -0.00000000       1073.68176       1.57089007    
   0.00000000       0.00000000       0.00000000       1073.68176       1.57089007    
   1.15368605      -1.51592600      -0.00000000       1073.68176       1.57089007    
   1.29255998      -1.39939702      -0.00000000       1080.95728       1.57087743    
   1.24750996      -1.43970299      -0.00000000       1080.95728       1.57087743    
   0.00000000       0.00000000       0.00000000       1080.95728       1.57087743    
   1.33631003      -1.35768199      -0.00000000       1080.95728       1.57087743    
   0.00000000       0.00000000       0.00000000       1080.22986       1.57088363    
   1.24750996      -1.43970299      -0.00000000       1080.22986       1.57088363    
   1.20120299      -1.47855902      -0.00000000       1080.22986       1.57088363    