 VARIABLES="X" "Y" "Z" "abs(p) (Pa)" "angle(p) (rad)"
ZONE N=    802,E =     800, F=FEPOINT, ET=QUADRILATERAL
   1.90499997       0.00000000      -0.00000000       3297.64648       1.59516382    
   1.90404105      -6.04420006E-02  -0.00000000       3297.64648       1.59516382    
   0.00000000       0.00000000       0.00000000       3297.64648       1.59516382    
   1.90404105       6.04420006E-02  -0.00000000       3297.64648       1.59516382    
   1.88967395      0.241159007      -0.00000000       3290.04150       1.59485590    
   1.89637399      0.181081995      -0.00000000       3290.04150       1.59485590    
   0.00000000       0.00000000       0.00000000       3290.04150       1.59485590    
   1.88107097      0.300992996      -0.00000000       3290.04150       1.59485590    
   0.00000000       0.00000000       0.00000000       3295.04468       1.59509754    
   1.89637399      0.181081995      -0.00000000       3295.04468       1.59509754    
   1.90116501      0.120823003      -0.00000000       3295.04468       1.59509754    
   1.90404105       6.04420006E-02  -0.00000000       3295.04468       1.59509754    
   1.87057400      0.360523999      -0.00000000       3285.37427       1.59439552    
   1.88107097      0.300992996      -0.00000000       3285.37427       1.59439552    
   0.00000000       0.00000000       0.00000000       3285.37427       1.59439552    
   1.85819399      0.419692010      -0.00000000       3285.37427       1.59439552    
   1.80988598      0.594424009      -0.00000000       3287.86841       1.59264815    
   1.82783401      0.536701024      -0.00000000       3287.86841       1.59264815    
   0.00000000       0.00000000       0.00000000       3287.86841       1.59264815    
   1.79011405      0.651548028      -0.00000000       3287.86841       1.59264815    
   0.00000000       0.00000000       0.00000000       3282.91895       1.59368682    
   1.82783401      0.536701024      -0.00000000       3282.91895       1.59368682    
   1.84394205      0.478437006      -0.00000000       3282.91895       1.59368682    
   1.85819399      0.419692010      -0.00000000       3282.91895       1.59368682    
   1.76854098      0.708016992      -0.00000000       3304.67114       1.59122300    
   1.79011405      0.651548028      -0.00000000       3304.67114       1.59122300    
   0.00000000       0.00000000       0.00000000       3304.67114       1.59122300    
   1.74518704      0.763773024      -0.00000000       3304.67114       1.59122300    
   1.66468298      0.926204979      -0.00000000       3380.46655       1.58716738    
   1.69323206      0.872922003      -0.00000000       3380.46655       1.58716738    
   0.00000000       0.00000000       0.00000000       3380.46655       1.58716738    
   1.63445795      0.978555024      -0.00000000       3380.46655       1.58716738    
   0.00000000       0.00000000       0.00000000       3335.05273       1.58939564    
   1.69323206      0.872922003      -0.00000000       3335.05273       1.58939564    
   1.72007501      0.818759024      -0.00000000       3335.05273       1.58939564    
   1.74518704      0.763773024      -0.00000000       3335.05273       1.58939564    
   1.60258806       1.02992105      -0.00000000       3437.19702       1.58462143    
   1.63445795      0.978555024      -0.00000000       3437.19702       1.58462143    
   0.00000000       0.00000000       0.00000000       3437.19702       1.58462143    
   1.56910396       1.08024895      -0.00000000       3437.19702       1.58462143    
   1.45931494       1.22450995      -0.00000000       3533.36621       1.57927847    
   1.49743104       1.17759299      -0.00000000       3533.36621       1.57927847    
   0.00000000       0.00000000       0.00000000       3533.36621       1.57927847    
   1.41972899       1.27019501      -0.00000000       3533.36621       1.57927847    
   0.00000000       0.00000000       0.00000000       3495.36401       1.58190477    
   1.49743104       1.17759299      -0.00000000       3495.36401       1.58190477    
   1.53403997       1.12949002      -0.00000000       3495.36401       1.58190477    
   1.56910396       1.08024895      -0.00000000       3495.36401       1.58190477    
   1.37871301       1.31459999      -0.00000000       3481.86523       1.57758152    
   1.41972899       1.27019501      -0.00000000       3481.86523       1.57758152    
   0.00000000       0.00000000       0.00000000       3481.86523       1.57758152    
   1.33631003       1.35768199      -0.00000000       3481.86523       1.57758152    
   1.20120299       1.47855902      -0.00000000       2935.59229       1.57949913    
   1.24750996       1.43970299      -0.00000000       2935.59229       1.57949913    
   0.00000000       0.00000000       0.00000000       2935.59229       1.57949913    
   1.15368605       1.51592600      -0.00000000       2935.59229       1.57949913    
   0.00000000       0.00000000       0.00000000       3254.14771       1.57793701    
   1.24750996       1.43970299      -0.00000000       3254.14771       1.57793701    
   1.29255998       1.39939702      -0.00000000       3254.14771       1.57793701    
   1.33631003       1.35768199      -0.00000000       3254.14771       1.57793701    
   1.10500801       1.55176699      -0.00000000       2603.64355       1.58143461    
   1.15368605       1.51592600      -0.00000000       2603.64355       1.58143461    
   0.00000000       0.00000000       0.00000000       2603.64355       1.58143461    
   1.05521798       1.58604598      -0.00000000       2603.64355       1.58143461    
  0.899676025       1.67916906      -0.00000000       1973.88513       1.58564270    
  0.952499986       1.64977801      -0.00000000       1973.88513       1.58564270    
   0.00000000       0.00000000       0.00000000       1973.88513       1.58564270    
  0.845947027       1.70686805      -0.00000000       1973.88513       1.58564270    
   0.00000000       0.00000000       0.00000000       2280.69409       1.58351183    
  0.952499986       1.64977801      -0.00000000       2280.69409       1.58351183    
   1.00436401       1.61872697      -0.00000000       2280.69409       1.58351183    
   1.05521798       1.58604598      -0.00000000       2280.69409       1.58351183    
  0.791365981       1.73284900      -0.00000000       1684.80310       1.58779514    
  0.845947027       1.70686805      -0.00000000       1684.80310       1.58779514    
   0.00000000       0.00000000       0.00000000       1684.80310       1.58779514    
  0.735987008       1.75708497      -0.00000000       1684.80310       1.58779514    
  0.565632999       1.81908906      -0.00000000       1153.73621       1.59246445    
  0.623063982       1.80022705      -0.00000000       1153.73621       1.59246445    
   0.00000000       0.00000000       0.00000000       1153.73621       1.59246445    
  0.507632971       1.83611906      -0.00000000       1153.73621       1.59246445    
   0.00000000       0.00000000       0.00000000       1412.63904       1.59000850    
  0.623063982       1.80022705      -0.00000000       1412.63904       1.59000850    
  0.679867983       1.77955198      -0.00000000       1412.63904       1.59000850    
  0.735987008       1.75708497      -0.00000000       1412.63904       1.59000850    
  0.449120998       1.85130095      -0.00000000       903.855408       1.59557879    
  0.507632971       1.83611906      -0.00000000       903.855408       1.59557879    
   0.00000000       0.00000000       0.00000000       903.855408       1.59557879    
  0.390157014       1.86461902      -0.00000000       903.855408       1.59557879    
  0.211146995       1.89326203      -0.00000000       418.648071       1.61000848    
  0.271109998       1.88560998      -0.00000000       418.648071       1.61000848    
   0.00000000       0.00000000       0.00000000       418.648071       1.61000848    
  0.150970995       1.89900804      -0.00000000       418.648071       1.61000848    
   0.00000000       0.00000000       0.00000000       659.396362       1.60038030    
  0.271109998       1.88560998      -0.00000000       659.396362       1.60038030    
  0.330799997       1.87605906      -0.00000000       659.396362       1.60038030    
  0.390157014       1.86461902      -0.00000000       659.396362       1.60038030    
   9.06440020E-02   1.90284204      -0.00000000       179.300919       1.64461470    
  0.150970995       1.89900804      -0.00000000       179.300919       1.64461470    
   0.00000000       0.00000000       0.00000000       179.300919       1.64461470    
   3.02249994E-02   1.90476000      -0.00000000       179.300919       1.64461470    
 -0.150970995       1.89900804      -0.00000000       299.894287      -1.59348595    
  -9.06440020E-02   1.90284204      -0.00000000       299.894287      -1.59348595    
   0.00000000       0.00000000       0.00000000       299.894287      -1.59348595    
 -0.211146995       1.89326203      -0.00000000       299.894287      -1.59348595    
   0.00000000       0.00000000       0.00000000       61.5948219      -1.73426461    
  -9.06440020E-02   1.90284204      -0.00000000       61.5948219      -1.73426461    
  -3.02249994E-02   1.90476000      -0.00000000       61.5948219      -1.73426461    
   3.02249994E-02   1.90476000      -0.00000000       61.5948219      -1.73426461    
 -0.271109998       1.88560998      -0.00000000       540.352783      -1.57756889    
 -0.211146995       1.89326203      -0.00000000       540.352783      -1.57756889    
   0.00000000       0.00000000       0.00000000       540.352783      -1.57756889    
 -0.330799997       1.87605906      -0.00000000       540.352783      -1.57756889    
 -0.507632971       1.83611906      -0.00000000       1034.91162      -1.56886971    
 -0.449120998       1.85130095      -0.00000000       1034.91162      -1.56886971    
   0.00000000       0.00000000       0.00000000       1034.91162      -1.56886971    
 -0.565632999       1.81908906      -0.00000000       1034.91162      -1.56886971    
   0.00000000       0.00000000       0.00000000       784.749207      -1.57168591    
 -0.449120998       1.85130095      -0.00000000       784.749207      -1.57168591    
 -0.390157014       1.86461902      -0.00000000       784.749207      -1.57168591    
 -0.330799997       1.87605906      -0.00000000       784.749207      -1.57168591    
 -0.623063982       1.80022705      -0.00000000       1295.01135      -1.56752491    
 -0.565632999       1.81908906      -0.00000000       1295.01135      -1.56752491    
   0.00000000       0.00000000       0.00000000       1295.01135      -1.56752491    
 -0.679867983       1.77955198      -0.00000000       1295.01135      -1.56752491    
 -0.845947027       1.70686805      -0.00000000       1856.50208      -1.56715143    
 -0.791365981       1.73284900      -0.00000000       1856.50208      -1.56715143    
   0.00000000       0.00000000       0.00000000       1856.50208      -1.56715143    
 -0.899676025       1.67916906      -0.00000000       1856.50208      -1.56715143    
   0.00000000       0.00000000       0.00000000       1568.52185      -1.56705093    
 -0.791365981       1.73284900      -0.00000000       1568.52185      -1.56705093    
 -0.735987008       1.75708497      -0.00000000       1568.52185      -1.56705093    
 -0.679867983       1.77955198      -0.00000000       1568.52185      -1.56705093    
 -0.952499986       1.64977801      -0.00000000       2160.32275      -1.56766272    
 -0.899676025       1.67916906      -0.00000000       2160.32275      -1.56766272    
   0.00000000       0.00000000       0.00000000       2160.32275      -1.56766272    
  -1.00436401       1.61872697      -0.00000000       2160.32275      -1.56766272    
  -1.15368605       1.51592600      -0.00000000       2797.56274      -1.56925619    
  -1.10500801       1.55176699      -0.00000000       2797.56274      -1.56925619    
   0.00000000       0.00000000       0.00000000       2797.56274      -1.56925619    
  -1.20120299       1.47855902      -0.00000000       2797.56274      -1.56925619    
   0.00000000       0.00000000       0.00000000       2477.16748      -1.56842029    
  -1.10500801       1.55176699      -0.00000000       2477.16748      -1.56842029    
  -1.05521798       1.58604598      -0.00000000       2477.16748      -1.56842029    
  -1.00436401       1.61872697      -0.00000000       2477.16748      -1.56842029    
  -1.24750996       1.43970299      -0.00000000       3100.79639      -1.56994009    
  -1.20120299       1.47855902      -0.00000000       3100.79639      -1.56994009    
   0.00000000       0.00000000       0.00000000       3100.79639      -1.56994009    
  -1.29255998       1.39939702      -0.00000000       3100.79639      -1.56994009    
  -1.41972899       1.27019501      -0.00000000       3365.68213      -1.56784213    
  -1.37871301       1.31459999      -0.00000000       3365.68213      -1.56784213    
   0.00000000       0.00000000       0.00000000       3365.68213      -1.56784213    
  -1.45931494       1.22450995      -0.00000000       3365.68213      -1.56784213    
   0.00000000       0.00000000       0.00000000       3318.41821      -1.56975448    
  -1.37871301       1.31459999      -0.00000000       3318.41821      -1.56975448    
  -1.33631003       1.35768199      -0.00000000       3318.41821      -1.56975448    
  -1.29255998       1.39939702      -0.00000000       3318.41821      -1.56975448    
  -1.49743104       1.17759299      -0.00000000       3324.02563      -1.56509137    
  -1.45931494       1.22450995      -0.00000000       3324.02563      -1.56509137    
   0.00000000       0.00000000       0.00000000       3324.02563      -1.56509137    
  -1.53403997       1.12949002      -0.00000000       3324.02563      -1.56509137    
  -1.63445795      0.978555024      -0.00000000       3216.84839      -1.55973268    
  -1.60258806       1.02992105      -0.00000000       3216.84839      -1.55973268    
   0.00000000       0.00000000       0.00000000       3216.84839      -1.55973268    
  -1.66468298      0.926204979      -0.00000000       3216.84839      -1.55973268    
   0.00000000       0.00000000       0.00000000       3267.27075      -1.56230354    
  -1.60258806       1.02992105      -0.00000000       3267.27075      -1.56230354    
  -1.56910396       1.08024895      -0.00000000       3267.27075      -1.56230354    
  -1.53403997       1.12949002      -0.00000000       3267.27075      -1.56230354    
  -1.69323206      0.872922003      -0.00000000       3179.52808      -1.55749571    
  -1.66468298      0.926204979      -0.00000000       3179.52808      -1.55749571    
   0.00000000       0.00000000       0.00000000       3179.52808      -1.55749571    
  -1.72007501      0.818759024      -0.00000000       3179.52808      -1.55749571    
  -1.79011405      0.651548028      -0.00000000       3150.65894      -1.55423200    
  -1.76854098      0.708016992      -0.00000000       3150.65894      -1.55423200    
   0.00000000       0.00000000       0.00000000       3150.65894      -1.55423200    
  -1.80988598      0.594424009      -0.00000000       3150.65894      -1.55423200    
   0.00000000       0.00000000       0.00000000       3157.89917      -1.55566025    
  -1.76854098      0.708016992      -0.00000000       3157.89917      -1.55566025    
  -1.74518704      0.763773024      -0.00000000       3157.89917      -1.55566025    
  -1.72007501      0.818759024      -0.00000000       3157.89917      -1.55566025    
  -1.82783401      0.536701024      -0.00000000       3153.33203      -1.55316150    
  -1.80988598      0.594424009      -0.00000000       3153.33203      -1.55316150    
   0.00000000       0.00000000       0.00000000       3153.33203      -1.55316150    
  -1.84394205      0.478437006      -0.00000000       3153.33203      -1.55316150    
  -1.88107097      0.300992996      -0.00000000       3171.09546      -1.55187297    
  -1.87057400      0.360523999      -0.00000000       3171.09546      -1.55187297    
   0.00000000       0.00000000       0.00000000       3171.09546      -1.55187297    
  -1.88967395      0.241159007      -0.00000000       3171.09546      -1.55187297    
   0.00000000       0.00000000       0.00000000       3161.63916      -1.55239761    
  -1.87057400      0.360523999      -0.00000000       3161.63916      -1.55239761    
  -1.85819399      0.419692010      -0.00000000       3161.63916      -1.55239761    
  -1.84394205      0.478437006      -0.00000000       3161.63916      -1.55239761    
  -1.89637399      0.181081995      -0.00000000       3180.33716      -1.55156612    
  -1.88967395      0.241159007      -0.00000000       3180.33716      -1.55156612    
   0.00000000       0.00000000       0.00000000       3180.33716      -1.55156612    
  -1.90116501      0.120823003      -0.00000000       3180.33716      -1.55156612    
  -1.90404105      -6.04420006E-02  -0.00000000       3186.01807      -1.55142665    
  -1.90499997       0.00000000      -0.00000000       3186.01807      -1.55142665    
   0.00000000       0.00000000       0.00000000       3186.01807      -1.55142665    
  -1.90116501     -0.120823003      -0.00000000       3186.01807      -1.55142665    
   0.00000000       0.00000000       0.00000000       3185.92676      -1.55142570    
  -1.90499997       0.00000000      -0.00000000       3185.92676      -1.55142570    
  -1.90404105       6.04420006E-02  -0.00000000       3185.92676      -1.55142570    
  -1.90116501      0.120823003      -0.00000000       3185.92676      -1.55142570    
  -1.89637399     -0.181081995      -0.00000000       3181.31299      -1.55157971    
  -1.90116501     -0.120823003      -0.00000000       3181.31299      -1.55157971    
   0.00000000       0.00000000       0.00000000       3181.31299      -1.55157971    
  -1.88967395     -0.241159007      -0.00000000       3181.31299      -1.55157971    
  -1.85819399     -0.419692010      -0.00000000       3168.05176      -1.55247962    
  -1.87057400     -0.360523999      -0.00000000       3168.05176      -1.55247962    
   0.00000000       0.00000000       0.00000000       3168.05176      -1.55247962    
  -1.84394205     -0.478437006      -0.00000000       3168.05176      -1.55247962    
   0.00000000       0.00000000       0.00000000       3174.70679      -1.55191982    
  -1.87057400     -0.360523999      -0.00000000       3174.70679      -1.55191982    
  -1.88107097     -0.300992996      -0.00000000       3174.70679      -1.55191982    
  -1.88967395     -0.241159007      -0.00000000       3174.70679      -1.55191982    
  -1.82783401     -0.536701024      -0.00000000       3163.29492      -1.55328429    
  -1.84394205     -0.478437006      -0.00000000       3163.29492      -1.55328429    
   0.00000000       0.00000000       0.00000000       3163.29492      -1.55328429    
  -1.80988598     -0.594424009      -0.00000000       3163.29492      -1.55328429    
  -1.74518704     -0.763773024      -0.00000000       3179.06665      -1.55589712    
  -1.76854098     -0.708016992      -0.00000000       3179.06665      -1.55589712    
   0.00000000       0.00000000       0.00000000       3179.06665      -1.55589712    
  -1.72007501     -0.818759024      -0.00000000       3179.06665      -1.55589712    
   0.00000000       0.00000000       0.00000000       3165.65039      -1.55441070    
  -1.76854098     -0.708016992      -0.00000000       3165.65039      -1.55441070    
  -1.79011405     -0.651548028      -0.00000000       3165.65039      -1.55441070    
  -1.80988598     -0.594424009      -0.00000000       3165.65039      -1.55441070    
  -1.69323206     -0.872922003      -0.00000000       3205.34692      -1.55776215    
  -1.72007501     -0.818759024      -0.00000000       3205.34692      -1.55776215    
   0.00000000       0.00000000       0.00000000       3205.34692      -1.55776215    
  -1.66468298     -0.926204979      -0.00000000       3205.34692      -1.55776215    
  -1.56910396      -1.08024895      -0.00000000       3295.15308      -1.56252038    
  -1.60258806      -1.02992105      -0.00000000       3295.15308      -1.56252038    
   0.00000000       0.00000000       0.00000000       3295.15308      -1.56252038    
  -1.53403997      -1.12949002      -0.00000000       3295.15308      -1.56252038    
   0.00000000       0.00000000       0.00000000       3245.14307      -1.55999327    
  -1.60258806      -1.02992105      -0.00000000       3245.14307      -1.55999327    
  -1.63445795     -0.978555024      -0.00000000       3245.14307      -1.55999327    
  -1.66468298     -0.926204979      -0.00000000       3245.14307      -1.55999327    
  -1.49743104      -1.17759299      -0.00000000       3346.11426      -1.56522000    
  -1.53403997      -1.12949002      -0.00000000       3346.11426      -1.56522000    
   0.00000000       0.00000000       0.00000000       3346.11426      -1.56522000    
  -1.45931494      -1.22450995      -0.00000000       3346.11426      -1.56522000    
  -1.33631003      -1.35768199      -0.00000000       3319.73682      -1.56971681    
  -1.37871301      -1.31459999      -0.00000000       3319.73682      -1.56971681    
   0.00000000       0.00000000       0.00000000       3319.73682      -1.56971681    
  -1.29255998      -1.39939702      -0.00000000       3319.73682      -1.56971681    
   0.00000000       0.00000000       0.00000000       3377.01270      -1.56786251    
  -1.37871301      -1.31459999      -0.00000000       3377.01270      -1.56786251    
  -1.41972899      -1.27019501      -0.00000000       3377.01270      -1.56786251    
  -1.45931494      -1.22450995      -0.00000000       3377.01270      -1.56786251    
  -1.24750996      -1.43970299      -0.00000000       3091.58911      -1.56986070    
  -1.29255998      -1.39939702      -0.00000000       3091.58911      -1.56986070    
   0.00000000       0.00000000       0.00000000       3091.58911      -1.56986070    
  -1.20120299      -1.47855902      -0.00000000       3091.58911      -1.56986070    
  -1.05521798      -1.58604598      -0.00000000       2448.11255      -1.56817460    
  -1.10500801      -1.55176699      -0.00000000       2448.11255      -1.56817460    
   0.00000000       0.00000000       0.00000000       2448.11255      -1.56817460    
  -1.00436401      -1.61872697      -0.00000000       2448.11255      -1.56817460    
   0.00000000       0.00000000       0.00000000       2776.42920      -1.56909299    
  -1.10500801      -1.55176699      -0.00000000       2776.42920      -1.56909299    
  -1.15368605      -1.51592600      -0.00000000       2776.42920      -1.56909299    
  -1.20120299      -1.47855902      -0.00000000       2776.42920      -1.56909299    
 -0.952499986      -1.64977801      -0.00000000       2128.30762      -1.56735539    
  -1.00436401      -1.61872697      -0.00000000       2128.30762      -1.56735539    
   0.00000000       0.00000000       0.00000000       2128.30762      -1.56735539    
 -0.899676025      -1.67916906      -0.00000000       2128.30762      -1.56735539    
 -0.735987008      -1.75708497      -0.00000000       1537.11926      -1.56666601    
 -0.791365981      -1.73284900      -0.00000000       1537.11926      -1.56666601    
   0.00000000       0.00000000       0.00000000       1537.11926      -1.56666601    
 -0.679867983      -1.77955198      -0.00000000       1537.11926      -1.56666601    
   0.00000000       0.00000000       0.00000000       1824.09607      -1.56679952    
 -0.791365981      -1.73284900      -0.00000000       1824.09607      -1.56679952    
 -0.845947027      -1.70686805      -0.00000000       1824.09607      -1.56679952    
 -0.899676025      -1.67916906      -0.00000000       1824.09607      -1.56679952    
 -0.623063982      -1.80022705      -0.00000000       1266.75391      -1.56714606    
 -0.679867983      -1.77955198      -0.00000000       1266.75391      -1.56714606    
   0.00000000       0.00000000       0.00000000       1266.75391      -1.56714606    
 -0.565632999      -1.81908906      -0.00000000       1266.75391      -1.56714606    
 -0.390157014      -1.86461902      -0.00000000       760.906616      -1.57136607    
 -0.449120998      -1.85130095      -0.00000000       760.906616      -1.57136607    
   0.00000000       0.00000000       0.00000000       760.906616      -1.57136607    
 -0.330799997      -1.87605906      -0.00000000       760.906616      -1.57136607    
   0.00000000       0.00000000       0.00000000       1009.40936      -1.56851161    
 -0.449120998      -1.85130095      -0.00000000       1009.40936      -1.56851161    
 -0.507632971      -1.83611906      -0.00000000       1009.40936      -1.56851161    
 -0.565632999      -1.81908906      -0.00000000       1009.40936      -1.56851161    
 -0.271109998      -1.88560998      -0.00000000       517.618347      -1.57742667    
 -0.330799997      -1.87605906      -0.00000000       517.618347      -1.57742667    
   0.00000000       0.00000000       0.00000000       517.618347      -1.57742667    
 -0.211146995      -1.89326203      -0.00000000       517.618347      -1.57742667    
  -3.02249994E-02  -1.90476000      -0.00000000       39.7049751      -1.82049012    
  -9.06440020E-02  -1.90284204      -0.00000000       39.7049751      -1.82049012    
   0.00000000       0.00000000       0.00000000       39.7049751      -1.82049012    
   3.02249994E-02  -1.90476000      -0.00000000       39.7049751      -1.82049012    
   0.00000000       0.00000000       0.00000000       277.663605      -1.59453809    
  -9.06440020E-02  -1.90284204      -0.00000000       277.663605      -1.59453809    
 -0.150970995      -1.89900804      -0.00000000       277.663605      -1.59453809    
 -0.211146995      -1.89326203      -0.00000000       277.663605      -1.59453809    
   9.06440020E-02  -1.90284204      -0.00000000       201.619400       1.63536692    
   3.02249994E-02  -1.90476000      -0.00000000       201.619400       1.63536692    
   0.00000000       0.00000000       0.00000000       201.619400       1.63536692    
  0.150970995      -1.89900804      -0.00000000       201.619400       1.63536692    
  0.330799997      -1.87605906      -0.00000000       682.617371       1.59901261    
  0.271109998      -1.88560998      -0.00000000       682.617371       1.59901261    
   0.00000000       0.00000000       0.00000000       682.617371       1.59901261    
  0.390157014      -1.86461902      -0.00000000       682.617371       1.59901261    
   0.00000000       0.00000000       0.00000000       441.076904       1.60751128    
  0.271109998      -1.88560998      -0.00000000       441.076904       1.60751128    
  0.211146995      -1.89326203      -0.00000000       441.076904       1.60751128    
  0.150970995      -1.89900804      -0.00000000       441.076904       1.60751128    
  0.449120998      -1.85130095      -0.00000000       928.494690       1.59460890    
  0.390157014      -1.86461902      -0.00000000       928.494690       1.59460890    
   0.00000000       0.00000000       0.00000000       928.494690       1.59460890    
  0.507632971      -1.83611906      -0.00000000       928.494690       1.59460890    
  0.679867983      -1.77955198      -0.00000000       1442.25122       1.58931231    
  0.623063982      -1.80022705      -0.00000000       1442.25122       1.58931231    
   0.00000000       0.00000000       0.00000000       1442.25122       1.58931231    
  0.735987008      -1.75708497      -0.00000000       1442.25122       1.58931231    
   0.00000000       0.00000000       0.00000000       1180.28760       1.59168065    
  0.623063982      -1.80022705      -0.00000000       1180.28760       1.59168065    
  0.565632999      -1.81908906      -0.00000000       1180.28760       1.59168065    
  0.507632971      -1.83611906      -0.00000000       1180.28760       1.59168065    
  0.791365981      -1.73284900      -0.00000000       1717.87854       1.58715582    
  0.735987008      -1.75708497      -0.00000000       1717.87854       1.58715582    
   0.00000000       0.00000000       0.00000000       1717.87854       1.58715582    
  0.845947027      -1.70686805      -0.00000000       1717.87854       1.58715582    
   1.00436401      -1.61872697      -0.00000000       2314.92651       1.58305144    
  0.952499986      -1.64977801      -0.00000000       2314.92651       1.58305144    
   0.00000000       0.00000000       0.00000000       2314.92651       1.58305144    
   1.05521798      -1.58604598      -0.00000000       2314.92651       1.58305144    
   0.00000000       0.00000000       0.00000000       2008.26208       1.58509135    
  0.952499986      -1.64977801      -0.00000000       2008.26208       1.58509135    
  0.899676025      -1.67916906      -0.00000000       2008.26208       1.58509135    
  0.845947027      -1.70686805      -0.00000000       2008.26208       1.58509135    
   1.10500801      -1.55176699      -0.00000000       2635.10229       1.58107281    
   1.05521798      -1.58604598      -0.00000000       2635.10229       1.58107281    
   0.00000000       0.00000000       0.00000000       2635.10229       1.58107281    
   1.15368605      -1.51592600      -0.00000000       2635.10229       1.58107281    
   1.29255998      -1.39939702      -0.00000000       3265.61401       1.57781386    
   1.24750996      -1.43970299      -0.00000000       3265.61401       1.57781386    
   0.00000000       0.00000000       0.00000000       3265.61401       1.57781386    
   1.33631003      -1.35768199      -0.00000000       3265.61401       1.57781386    
   0.00000000       0.00000000       0.00000000       2959.32349       1.57925737    
   1.24750996      -1.43970299      -0.00000000       2959.32349       1.57925737    
   1.20120299      -1.47855902      -0.00000000       2959.32349       1.57925737    