 VARIABLES="X" "Y" "Z" "abs(p) (Pa)" "angle(p) (rad)"
ZONE N=    802,E =     800, F=FEPOINT, ET=QUADRILATERAL
   1.90499997       0.00000000      -0.00000000       4.47543812      -1.59980035    
   1.90404105      -6.04420006E-02  -0.00000000       4.47543812      -1.59980035    
   0.00000000       0.00000000       0.00000000       4.47543812      -1.59980035    
   1.90404105       6.04420006E-02  -0.00000000       4.47543812      -1.59980035    
   1.88967395      0.241159007      -0.00000000       243.473770      -1.57080352    
   1.89637399      0.181081995      -0.00000000       243.473770      -1.57080352    
   0.00000000       0.00000000       0.00000000       243.473770      -1.57080352    
   1.88107097      0.300992996      -0.00000000       243.473770      -1.57080352    
   0.00000000       0.00000000       0.00000000       123.289436      -1.57132697    
   1.89637399      0.181081995      -0.00000000       123.289436      -1.57132697    
   1.90116501      0.120823003      -0.00000000       123.289436      -1.57132697    
   1.90404105       6.04420006E-02  -0.00000000       123.289436      -1.57132697    
   1.87057400      0.360523999      -0.00000000       365.516357      -1.57063222    
   1.88107097      0.300992996      -0.00000000       365.516357      -1.57063222    
   0.00000000       0.00000000       0.00000000       365.516357      -1.57063222    
   1.85819399      0.419692010      -0.00000000       365.516357      -1.57063222    
   1.80988598      0.594424009      -0.00000000       620.474915      -1.57052231    
   1.82783401      0.536701024      -0.00000000       620.474915      -1.57052231    
   0.00000000       0.00000000       0.00000000       620.474915      -1.57052231    
   1.79011405      0.651548028      -0.00000000       620.474915      -1.57052231    
   0.00000000       0.00000000       0.00000000       490.797852      -1.57055628    
   1.82783401      0.536701024      -0.00000000       490.797852      -1.57055628    
   1.84394205      0.478437006      -0.00000000       490.797852      -1.57055628    
   1.85819399      0.419692010      -0.00000000       490.797852      -1.57055628    
   1.76854098      0.708016992      -0.00000000       755.416565      -1.57050896    
   1.79011405      0.651548028      -0.00000000       755.416565      -1.57050896    
   0.00000000       0.00000000       0.00000000       755.416565      -1.57050896    
   1.74518704      0.763773024      -0.00000000       755.416565      -1.57050896    
   1.66468298      0.926204979      -0.00000000       1044.38879      -1.57052457    
   1.69323206      0.872922003      -0.00000000       1044.38879      -1.57052457    
   0.00000000       0.00000000       0.00000000       1044.38879      -1.57052457    
   1.63445795      0.978555024      -0.00000000       1044.38879      -1.57052457    
   0.00000000       0.00000000       0.00000000       896.744568      -1.57051194    
   1.69323206      0.872922003      -0.00000000       896.744568      -1.57051194    
   1.72007501      0.818759024      -0.00000000       896.744568      -1.57051194    
   1.74518704      0.763773024      -0.00000000       896.744568      -1.57051194    
   1.60258806       1.02992105      -0.00000000       1196.30774      -1.57054198    
   1.63445795      0.978555024      -0.00000000       1196.30774      -1.57054198    
   0.00000000       0.00000000       0.00000000       1196.30774      -1.57054198    
   1.56910396       1.08024895      -0.00000000       1196.30774      -1.57054198    
   1.45931494       1.22450995      -0.00000000       1492.91870      -1.57057679    
   1.49743104       1.17759299      -0.00000000       1492.91870      -1.57057679    
   0.00000000       0.00000000       0.00000000       1492.91870      -1.57057679    
   1.41972899       1.27019501      -0.00000000       1492.91870      -1.57057679    
   0.00000000       0.00000000       0.00000000       1348.18140      -1.57056093    
   1.49743104       1.17759299      -0.00000000       1348.18140      -1.57056093    
   1.53403997       1.12949002      -0.00000000       1348.18140      -1.57056093    
   1.56910396       1.08024895      -0.00000000       1348.18140      -1.57056093    
   1.37871301       1.31459999      -0.00000000       1600.27991      -1.57057047    
   1.41972899       1.27019501      -0.00000000       1600.27991      -1.57057047    
   0.00000000       0.00000000       0.00000000       1600.27991      -1.57057047    
   1.33631003       1.35768199      -0.00000000       1600.27991      -1.57057047    
   1.20120299       1.47855902      -0.00000000       1624.06494      -1.57045019    
   1.24750996       1.43970299      -0.00000000       1624.06494      -1.57045019    
   0.00000000       0.00000000       0.00000000       1624.06494      -1.57045019    
   1.15368605       1.51592600      -0.00000000       1624.06494      -1.57045019    
   0.00000000       0.00000000       0.00000000       1631.67981      -1.57052076    
   1.24750996       1.43970299      -0.00000000       1631.67981      -1.57052076    
   1.29255998       1.39939702      -0.00000000       1631.67981      -1.57052076    
   1.33631003       1.35768199      -0.00000000       1631.67981      -1.57052076    
   1.10500801       1.55176699      -0.00000000       1610.00317      -1.57038045    
   1.15368605       1.51592600      -0.00000000       1610.00317      -1.57038045    
   0.00000000       0.00000000       0.00000000       1610.00317      -1.57038045    
   1.05521798       1.58604598      -0.00000000       1610.00317      -1.57038045    
  0.899676025       1.67916906      -0.00000000       1589.63428      -1.57026100    
  0.952499986       1.64977801      -0.00000000       1589.63428      -1.57026100    
   0.00000000       0.00000000       0.00000000       1589.63428      -1.57026100    
  0.845947027       1.70686805      -0.00000000       1589.63428      -1.57026100    
   0.00000000       0.00000000       0.00000000       1597.24805      -1.57031620    
  0.952499986       1.64977801      -0.00000000       1597.24805      -1.57031620    
   1.00436401       1.61872697      -0.00000000       1597.24805      -1.57031620    
   1.05521798       1.58604598      -0.00000000       1597.24805      -1.57031620    
  0.791365981       1.73284900      -0.00000000       1586.94910      -1.57021511    
  0.845947027       1.70686805      -0.00000000       1586.94910      -1.57021511    
   0.00000000       0.00000000       0.00000000       1586.94910      -1.57021511    
  0.735987008       1.75708497      -0.00000000       1586.94910      -1.57021511    
  0.565632999       1.81908906      -0.00000000       1594.05481      -1.57015157    
  0.623063982       1.80022705      -0.00000000       1594.05481      -1.57015157    
   0.00000000       0.00000000       0.00000000       1594.05481      -1.57015157    
  0.507632971       1.83611906      -0.00000000       1594.05481      -1.57015157    
   0.00000000       0.00000000       0.00000000       1588.80615      -1.57017910    
  0.623063982       1.80022705      -0.00000000       1588.80615      -1.57017910    
  0.679867983       1.77955198      -0.00000000       1588.80615      -1.57017910    
  0.735987008       1.75708497      -0.00000000       1588.80615      -1.57017910    
  0.449120998       1.85130095      -0.00000000       1601.28528      -1.57013190    
  0.507632971       1.83611906      -0.00000000       1601.28528      -1.57013190    
   0.00000000       0.00000000       0.00000000       1601.28528      -1.57013190    
  0.390157014       1.86461902      -0.00000000       1601.28528      -1.57013190    
  0.211146995       1.89326203      -0.00000000       1615.07983      -1.57011020    
  0.271109998       1.88560998      -0.00000000       1615.07983      -1.57011020    
   0.00000000       0.00000000       0.00000000       1615.07983      -1.57011020    
  0.150970995       1.89900804      -0.00000000       1615.07983      -1.57011020    
   0.00000000       0.00000000       0.00000000       1608.91150      -1.57011855    
  0.271109998       1.88560998      -0.00000000       1608.91150      -1.57011855    
  0.330799997       1.87605906      -0.00000000       1608.91150      -1.57011855    
  0.390157014       1.86461902      -0.00000000       1608.91150      -1.57011855    
   9.06440020E-02   1.90284204      -0.00000000       1619.66699      -1.57010663    
  0.150970995       1.89900804      -0.00000000       1619.66699      -1.57010663    
   0.00000000       0.00000000       0.00000000       1619.66699      -1.57010663    
   3.02249994E-02   1.90476000      -0.00000000       1619.66699      -1.57010663    
 -0.150970995       1.89900804      -0.00000000       1622.09265      -1.57011163    
  -9.06440020E-02   1.90284204      -0.00000000       1622.09265      -1.57011163    
   0.00000000       0.00000000       0.00000000       1622.09265      -1.57011163    
 -0.211146995       1.89326203      -0.00000000       1622.09265      -1.57011163    
   0.00000000       0.00000000       0.00000000       1621.89636      -1.57010722    
  -9.06440020E-02   1.90284204      -0.00000000       1621.89636      -1.57010722    
  -3.02249994E-02   1.90476000      -0.00000000       1621.89636      -1.57010722    
   3.02249994E-02   1.90476000      -0.00000000       1621.89636      -1.57010722    
 -0.271109998       1.88560998      -0.00000000       1620.65247      -1.57012141    
 -0.211146995       1.89326203      -0.00000000       1620.65247      -1.57012141    
   0.00000000       0.00000000       0.00000000       1620.65247      -1.57012141    
 -0.330799997       1.87605906      -0.00000000       1620.65247      -1.57012141    
 -0.507632971       1.83611906      -0.00000000       1617.61108      -1.57015777    
 -0.449120998       1.85130095      -0.00000000       1617.61108      -1.57015777    
   0.00000000       0.00000000       0.00000000       1617.61108      -1.57015777    
 -0.565632999       1.81908906      -0.00000000       1617.61108      -1.57015777    
   0.00000000       0.00000000       0.00000000       1618.53052      -1.57013607    
 -0.449120998       1.85130095      -0.00000000       1618.53052      -1.57013607    
 -0.390157014       1.86461902      -0.00000000       1618.53052      -1.57013607    
 -0.330799997       1.87605906      -0.00000000       1618.53052      -1.57013607    
 -0.623063982       1.80022705      -0.00000000       1619.03113      -1.57018721    
 -0.565632999       1.81908906      -0.00000000       1619.03113      -1.57018721    
   0.00000000       0.00000000       0.00000000       1619.03113      -1.57018721    
 -0.679867983       1.77955198      -0.00000000       1619.03113      -1.57018721    
 -0.845947027       1.70686805      -0.00000000       1633.05444      -1.57027137    
 -0.791365981       1.73284900      -0.00000000       1633.05444      -1.57027137    
   0.00000000       0.00000000       0.00000000       1633.05444      -1.57027137    
 -0.899676025       1.67916906      -0.00000000       1633.05444      -1.57027137    
   0.00000000       0.00000000       0.00000000       1623.75488      -1.57022476    
 -0.791365981       1.73284900      -0.00000000       1623.75488      -1.57022476    
 -0.735987008       1.75708497      -0.00000000       1623.75488      -1.57022476    
 -0.679867983       1.77955198      -0.00000000       1623.75488      -1.57022476    
 -0.952499986       1.64977801      -0.00000000       1646.85779      -1.57032681    
 -0.899676025       1.67916906      -0.00000000       1646.85779      -1.57032681    
   0.00000000       0.00000000       0.00000000       1646.85779      -1.57032681    
  -1.00436401       1.61872697      -0.00000000       1646.85779      -1.57032681    
  -1.15368605       1.51592600      -0.00000000       1679.39587      -1.57045519    
  -1.10500801       1.55176699      -0.00000000       1679.39587      -1.57045519    
   0.00000000       0.00000000       0.00000000       1679.39587      -1.57045519    
  -1.20120299       1.47855902      -0.00000000       1679.39587      -1.57045519    
   0.00000000       0.00000000       0.00000000       1663.68701      -1.57038903    
  -1.10500801       1.55176699      -0.00000000       1663.68701      -1.57038903    
  -1.05521798       1.58604598      -0.00000000       1663.68701      -1.57038903    
  -1.00436401       1.61872697      -0.00000000       1663.68701      -1.57038903    
  -1.24750996       1.43970299      -0.00000000       1686.67395      -1.57052147    
  -1.20120299       1.47855902      -0.00000000       1686.67395      -1.57052147    
   0.00000000       0.00000000       0.00000000       1686.67395      -1.57052147    
  -1.29255998       1.39939702      -0.00000000       1686.67395      -1.57052147    
  -1.41972899       1.27019501      -0.00000000       1543.26843      -1.57057083    
  -1.37871301       1.31459999      -0.00000000       1543.26843      -1.57057083    
   0.00000000       0.00000000       0.00000000       1543.26843      -1.57057083    
  -1.45931494       1.22450995      -0.00000000       1543.26843      -1.57057083    
   0.00000000       0.00000000       0.00000000       1654.35474      -1.57056820    
  -1.37871301       1.31459999      -0.00000000       1654.35474      -1.57056820    
  -1.33631003       1.35768199      -0.00000000       1654.35474      -1.57056820    
  -1.29255998       1.39939702      -0.00000000       1654.35474      -1.57056820    
  -1.49743104       1.17759299      -0.00000000       1392.60156      -1.57055032    
  -1.45931494       1.22450995      -0.00000000       1392.60156      -1.57055032    
   0.00000000       0.00000000       0.00000000       1392.60156      -1.57055032    
  -1.53403997       1.12949002      -0.00000000       1392.60156      -1.57055032    
  -1.63445795      0.978555024      -0.00000000       1082.07812      -1.57050347    
  -1.60258806       1.02992105      -0.00000000       1082.07812      -1.57050347    
   0.00000000       0.00000000       0.00000000       1082.07812      -1.57050347    
  -1.66468298      0.926204979      -0.00000000       1082.07812      -1.57050347    
   0.00000000       0.00000000       0.00000000       1236.25916      -1.57052648    
  -1.60258806       1.02992105      -0.00000000       1236.25916      -1.57052648    
  -1.56910396       1.08024895      -0.00000000       1236.25916      -1.57052648    
  -1.53403997       1.12949002      -0.00000000       1236.25916      -1.57052648    
  -1.69323206      0.872922003      -0.00000000       934.872131      -1.57048738    
  -1.66468298      0.926204979      -0.00000000       934.872131      -1.57048738    
   0.00000000       0.00000000       0.00000000       934.872131      -1.57048738    
  -1.72007501      0.818759024      -0.00000000       934.872131      -1.57048738    
  -1.79011405      0.651548028      -0.00000000       661.511230      -1.57048547    
  -1.76854098      0.708016992      -0.00000000       661.511230      -1.57048547    
   0.00000000       0.00000000       0.00000000       661.511230      -1.57048547    
  -1.80988598      0.594424009      -0.00000000       661.511230      -1.57048547    
   0.00000000       0.00000000       0.00000000       794.847229      -1.57047999    
  -1.76854098      0.708016992      -0.00000000       794.847229      -1.57047999    
  -1.74518704      0.763773024      -0.00000000       794.847229      -1.57047999    
  -1.72007501      0.818759024      -0.00000000       794.847229      -1.57047999    
  -1.82783401      0.536701024      -0.00000000       533.869263      -1.57050955    
  -1.80988598      0.594424009      -0.00000000       533.869263      -1.57050955    
   0.00000000       0.00000000       0.00000000       533.869263      -1.57050955    
  -1.84394205      0.478437006      -0.00000000       533.869263      -1.57050955    
  -1.88107097      0.300992996      -0.00000000       289.741180      -1.57068050    
  -1.87057400      0.360523999      -0.00000000       289.741180      -1.57068050    
   0.00000000       0.00000000       0.00000000       289.741180      -1.57068050    
  -1.88967395      0.241159007      -0.00000000       289.741180      -1.57068050    
   0.00000000       0.00000000       0.00000000       410.475922      -1.57056510    
  -1.87057400      0.360523999      -0.00000000       410.475922      -1.57056510    
  -1.85819399      0.419692010      -0.00000000       410.475922      -1.57056510    
  -1.84394205      0.478437006      -0.00000000       410.475922      -1.57056510    
  -1.89637399      0.181081995      -0.00000000       170.515533      -1.57097733    
  -1.88967395      0.241159007      -0.00000000       170.515533      -1.57097733    
   0.00000000       0.00000000       0.00000000       170.515533      -1.57097733    
  -1.90116501      0.120823003      -0.00000000       170.515533      -1.57097733    
  -1.90404105      -6.04420006E-02  -0.00000000       64.4305725       1.57331634    
  -1.90499997       0.00000000      -0.00000000       64.4305725       1.57331634    
   0.00000000       0.00000000       0.00000000       64.4305725       1.57331634    
  -1.90116501     -0.120823003      -0.00000000       64.4305725       1.57331634    
   0.00000000       0.00000000       0.00000000       52.8505173      -1.57262039    
  -1.90499997       0.00000000      -0.00000000       52.8505173      -1.57262039    
  -1.90404105       6.04420006E-02  -0.00000000       52.8505173      -1.57262039    
  -1.90116501      0.120823003      -0.00000000       52.8505173      -1.57262039    
  -1.89637399     -0.181081995      -0.00000000       182.658615       1.57204390    
  -1.90116501     -0.120823003      -0.00000000       182.658615       1.57204390    
   0.00000000       0.00000000       0.00000000       182.658615       1.57204390    
  -1.88967395     -0.241159007      -0.00000000       182.658615       1.57204390    
  -1.85819399     -0.419692010      -0.00000000       423.495697       1.57162833    
  -1.87057400     -0.360523999      -0.00000000       423.495697       1.57162833    
   0.00000000       0.00000000       0.00000000       423.495697       1.57162833    
  -1.84394205     -0.478437006      -0.00000000       423.495697       1.57162833    
   0.00000000       0.00000000       0.00000000       302.319641       1.57175827    
  -1.87057400     -0.360523999      -0.00000000       302.319641       1.57175827    
  -1.88107097     -0.300992996      -0.00000000       302.319641       1.57175827    
  -1.88967395     -0.241159007      -0.00000000       302.319641       1.57175827    
  -1.82783401     -0.536701024      -0.00000000       548.036316       1.57154334    
  -1.84394205     -0.478437006      -0.00000000       548.036316       1.57154334    
   0.00000000       0.00000000       0.00000000       548.036316       1.57154334    
  -1.80988598     -0.594424009      -0.00000000       548.036316       1.57154334    
  -1.74518704     -0.763773024      -0.00000000       811.710205       1.57142055    
  -1.76854098     -0.708016992      -0.00000000       811.710205       1.57142055    
   0.00000000       0.00000000       0.00000000       811.710205       1.57142055    
  -1.72007501     -0.818759024      -0.00000000       811.710205       1.57142055    
   0.00000000       0.00000000       0.00000000       677.164001       1.57147753    
  -1.76854098     -0.708016992      -0.00000000       677.164001       1.57147753    
  -1.79011405     -0.651548028      -0.00000000       677.164001       1.57147753    
  -1.80988598     -0.594424009      -0.00000000       677.164001       1.57147753    
  -1.69323206     -0.872922003      -0.00000000       952.784485       1.57136595    
  -1.72007501     -0.818759024      -0.00000000       952.784485       1.57136595    
   0.00000000       0.00000000       0.00000000       952.784485       1.57136595    
  -1.66468298     -0.926204979      -0.00000000       952.784485       1.57136595    
  -1.56910396      -1.08024895      -0.00000000       1252.34167       1.57126522    
  -1.60258806      -1.02992105      -0.00000000       1252.34167       1.57126522    
   0.00000000       0.00000000       0.00000000       1252.34167       1.57126522    
  -1.53403997      -1.12949002      -0.00000000       1252.34167       1.57126522    
   0.00000000       0.00000000       0.00000000       1100.42908       1.57131350    
  -1.60258806      -1.02992105      -0.00000000       1100.42908       1.57131350    
  -1.63445795     -0.978555024      -0.00000000       1100.42908       1.57131350    
  -1.66468298     -0.926204979      -0.00000000       1100.42908       1.57131350    
  -1.49743104      -1.17759299      -0.00000000       1404.42334       1.57122135    
  -1.53403997      -1.12949002      -0.00000000       1404.42334       1.57122135    
   0.00000000       0.00000000       0.00000000       1404.42334       1.57122135    
  -1.45931494      -1.22450995      -0.00000000       1404.42334       1.57122135    
  -1.33631003      -1.35768199      -0.00000000       1655.04236       1.57118022    
  -1.37871301      -1.31459999      -0.00000000       1655.04236       1.57118022    
   0.00000000       0.00000000       0.00000000       1655.04236       1.57118022    
  -1.29255998      -1.39939702      -0.00000000       1655.04236       1.57118022    
   0.00000000       0.00000000       0.00000000       1549.21338       1.57118630    
  -1.37871301      -1.31459999      -0.00000000       1549.21338       1.57118630    
  -1.41972899      -1.27019501      -0.00000000       1549.21338       1.57118630    
  -1.45931494      -1.22450995      -0.00000000       1549.21338       1.57118630    
  -1.24750996      -1.43970299      -0.00000000       1682.44641       1.57122660    
  -1.29255998      -1.39939702      -0.00000000       1682.44641       1.57122660    
   0.00000000       0.00000000       0.00000000       1682.44641       1.57122660    
  -1.20120299      -1.47855902      -0.00000000       1682.44641       1.57122660    
  -1.05521798      -1.58604598      -0.00000000       1651.21680       1.57136703    
  -1.10500801      -1.55176699      -0.00000000       1651.21680       1.57136703    
   0.00000000       0.00000000       0.00000000       1651.21680       1.57136703    
  -1.00436401      -1.61872697      -0.00000000       1651.21680       1.57136703    
   0.00000000       0.00000000       0.00000000       1670.09644       1.57129657    
  -1.10500801      -1.55176699      -0.00000000       1670.09644       1.57129657    
  -1.15368605      -1.51592600      -0.00000000       1670.09644       1.57129657    
  -1.20120299      -1.47855902      -0.00000000       1670.09644       1.57129657    
 -0.952499986      -1.64977801      -0.00000000       1633.65625       1.57143247    
  -1.00436401      -1.61872697      -0.00000000       1633.65625       1.57143247    
   0.00000000       0.00000000       0.00000000       1633.65625       1.57143247    
 -0.899676025      -1.67916906      -0.00000000       1633.65625       1.57143247    
 -0.735987008      -1.75708497      -0.00000000       1614.08240       1.57153535    
 -0.791365981      -1.73284900      -0.00000000       1614.08240       1.57153535    
   0.00000000       0.00000000       0.00000000       1614.08240       1.57153535    
 -0.679867983      -1.77955198      -0.00000000       1614.08240       1.57153535    
   0.00000000       0.00000000       0.00000000       1621.29736       1.57148862    
 -0.791365981      -1.73284900      -0.00000000       1621.29736       1.57148862    
 -0.845947027      -1.70686805      -0.00000000       1621.29736       1.57148862    
 -0.899676025      -1.67916906      -0.00000000       1621.29736       1.57148862    
 -0.623063982      -1.80022705      -0.00000000       1611.65588       1.57157159    
 -0.679867983      -1.77955198      -0.00000000       1611.65588       1.57157159    
   0.00000000       0.00000000       0.00000000       1611.65588       1.57157159    
 -0.565632999      -1.81908906      -0.00000000       1611.65588       1.57157159    
 -0.390157014      -1.86461902      -0.00000000       1616.01953       1.57161927    
 -0.449120998      -1.85130095      -0.00000000       1616.01953       1.57161927    
   0.00000000       0.00000000       0.00000000       1616.01953       1.57161927    
 -0.330799997      -1.87605906      -0.00000000       1616.01953       1.57161927    
   0.00000000       0.00000000       0.00000000       1612.78271       1.57159936    
 -0.449120998      -1.85130095      -0.00000000       1612.78271       1.57159936    
 -0.507632971      -1.83611906      -0.00000000       1612.78271       1.57159936    
 -0.565632999      -1.81908906      -0.00000000       1612.78271       1.57159936    
 -0.271109998      -1.88560998      -0.00000000       1619.69421       1.57163274    
 -0.330799997      -1.87605906      -0.00000000       1619.69421       1.57163274    
   0.00000000       0.00000000       0.00000000       1619.69421       1.57163274    
 -0.211146995      -1.89326203      -0.00000000       1619.69421       1.57163274    
  -3.02249994E-02  -1.90476000      -0.00000000       1622.60925       1.57164526    
  -9.06440020E-02  -1.90284204      -0.00000000       1622.60925       1.57164526    
   0.00000000       0.00000000       0.00000000       1622.60925       1.57164526    
   3.02249994E-02  -1.90476000      -0.00000000       1622.60925       1.57164526    
   0.00000000       0.00000000       0.00000000       1621.93726       1.57164097    
  -9.06440020E-02  -1.90284204      -0.00000000       1621.93726       1.57164097    
 -0.150970995      -1.89900804      -0.00000000       1621.93726       1.57164097    
 -0.211146995      -1.89326203      -0.00000000       1621.93726       1.57164097    
   9.06440020E-02  -1.90284204      -0.00000000       1620.95862       1.57164526    
   3.02249994E-02  -1.90476000      -0.00000000       1620.95862       1.57164526    
   0.00000000       0.00000000       0.00000000       1620.95862       1.57164526    
  0.150970995      -1.89900804      -0.00000000       1620.95862       1.57164526    
  0.330799997      -1.87605906      -0.00000000       1611.89758       1.57163286    
  0.271109998      -1.88560998      -0.00000000       1611.89758       1.57163286    
   0.00000000       0.00000000       0.00000000       1611.89758       1.57163286    
  0.390157014      -1.86461902      -0.00000000       1611.89758       1.57163286    
   0.00000000       0.00000000       0.00000000       1617.23535       1.57164156    
  0.271109998      -1.88560998      -0.00000000       1617.23535       1.57164156    
  0.211146995      -1.89326203      -0.00000000       1617.23535       1.57164156    
  0.150970995      -1.89900804      -0.00000000       1617.23535       1.57164156    
  0.449120998      -1.85130095      -0.00000000       1605.86462       1.57161903    
  0.390157014      -1.86461902      -0.00000000       1605.86462       1.57161903    
   0.00000000       0.00000000       0.00000000       1605.86462       1.57161903    
  0.507632971      -1.83611906      -0.00000000       1605.86462       1.57161903    
  0.679867983      -1.77955198      -0.00000000       1598.27808       1.57156920    
  0.623063982      -1.80022705      -0.00000000       1598.27808       1.57156920    
   0.00000000       0.00000000       0.00000000       1598.27808       1.57156920    
  0.735987008      -1.75708497      -0.00000000       1598.27808       1.57156920    
   0.00000000       0.00000000       0.00000000       1600.96521       1.57159805    
  0.623063982      -1.80022705      -0.00000000       1600.96521       1.57159805    
  0.565632999      -1.81908906      -0.00000000       1600.96521       1.57159805    
  0.507632971      -1.83611906      -0.00000000       1600.96521       1.57159805    
  0.791365981      -1.73284900      -0.00000000       1598.71570       1.57153153    
  0.735987008      -1.75708497      -0.00000000       1598.71570       1.57153153    
   0.00000000       0.00000000       0.00000000       1598.71570       1.57153153    
  0.845947027      -1.70686805      -0.00000000       1598.71570       1.57153153    
   1.00436401      -1.61872697      -0.00000000       1612.71179       1.57142758    
  0.952499986      -1.64977801      -0.00000000       1612.71179       1.57142758    
   0.00000000       0.00000000       0.00000000       1612.71179       1.57142758    
   1.05521798      -1.58604598      -0.00000000       1612.71179       1.57142758    
   0.00000000       0.00000000       0.00000000       1603.47424       1.57148421    
  0.952499986      -1.64977801      -0.00000000       1603.47424       1.57148421    
  0.899676025      -1.67916906      -0.00000000       1603.47424       1.57148421    
  0.845947027      -1.70686805      -0.00000000       1603.47424       1.57148421    
   1.10500801      -1.55176699      -0.00000000       1624.90344       1.57136357    
   1.05521798      -1.58604598      -0.00000000       1624.90344       1.57136357    
   0.00000000       0.00000000       0.00000000       1624.90344       1.57136357    
   1.15368605      -1.51592600      -0.00000000       1624.90344       1.57136357    
   1.29255998      -1.39939702      -0.00000000       1638.78308       1.57122755    
   1.24750996      -1.43970299      -0.00000000       1638.78308       1.57122755    
   0.00000000       0.00000000       0.00000000       1638.78308       1.57122755    
   1.33631003      -1.35768199      -0.00000000       1638.78308       1.57122755    
   0.00000000       0.00000000       0.00000000       1636.00024       1.57129514    
   1.24750996      -1.43970299      -0.00000000       1636.00024       1.57129514    
   1.20120299      -1.47855902      -0.00000000       1636.00024       1.57129514    