 VARIABLES="X" "Y" "Z" "abs(p) (Pa)" "angle(p) (rad)"
ZONE N=    802,E =     800, F=FEPOINT, ET=QUADRILATERAL
   1.90499997       0.00000000      -0.00000000      0.396050423       1.55750799    
   1.90404105      -6.04420006E-02  -0.00000000      0.396050423       1.55750799    
   0.00000000       0.00000000       0.00000000      0.396050423       1.55750799    
   1.90404105       6.04420006E-02  -0.00000000      0.396050423       1.55750799    
   1.88967395      0.241159007      -0.00000000       21.3238602       1.57058012    
   1.89637399      0.181081995      -0.00000000       21.3238602       1.57058012    
   0.00000000       0.00000000       0.00000000       21.3238602       1.57058012    
   1.88107097      0.300992996      -0.00000000       21.3238602       1.57058012    
   0.00000000       0.00000000       0.00000000       10.8315258       1.57034087    
   1.89637399      0.181081995      -0.00000000       10.8315258       1.57034087    
   1.90116501      0.120823003      -0.00000000       10.8315258       1.57034087    
   1.90404105       6.04420006E-02  -0.00000000       10.8315258       1.57034087    
   1.87057400      0.360523999      -0.00000000       32.0464172       1.57066226    
   1.88107097      0.300992996      -0.00000000       32.0464172       1.57066226    
   0.00000000       0.00000000       0.00000000       32.0464172       1.57066226    
   1.85819399      0.419692010      -0.00000000       32.0464172       1.57066226    
   1.80988598      0.594424009      -0.00000000       54.4030151       1.57072783    
   1.82783401      0.536701024      -0.00000000       54.4030151       1.57072783    
   0.00000000       0.00000000       0.00000000       54.4030151       1.57072783    
   1.79011405      0.651548028      -0.00000000       54.4030151       1.57072783    
   0.00000000       0.00000000       0.00000000       43.0491524       1.57070351    
   1.82783401      0.536701024      -0.00000000       43.0491524       1.57070351    
   1.84394205      0.478437006      -0.00000000       43.0491524       1.57070351    
   1.85819399      0.419692010      -0.00000000       43.0491524       1.57070351    
   1.76854098      0.708016992      -0.00000000       66.2395630       1.57074380    
   1.79011405      0.651548028      -0.00000000       66.2395630       1.57074380    
   0.00000000       0.00000000       0.00000000       66.2395630       1.57074380    
   1.74518704      0.763773024      -0.00000000       66.2395630       1.57074380    
   1.66468298      0.926204979      -0.00000000       91.3766403       1.57076240    
   1.69323206      0.872922003      -0.00000000       91.3766403       1.57076240    
   0.00000000       0.00000000       0.00000000       91.3766403       1.57076240    
   1.63445795      0.978555024      -0.00000000       91.3766403       1.57076240    
   0.00000000       0.00000000       0.00000000       78.5665741       1.57075465    
   1.69323206      0.872922003      -0.00000000       78.5665741       1.57075465    
   1.72007501      0.818759024      -0.00000000       78.5665741       1.57075465    
   1.74518704      0.763773024      -0.00000000       78.5665741       1.57075465    
   1.60258806       1.02992105      -0.00000000       104.506927       1.57076776    
   1.63445795      0.978555024      -0.00000000       104.506927       1.57076776    
   0.00000000       0.00000000       0.00000000       104.506927       1.57076776    
   1.56910396       1.08024895      -0.00000000       104.506927       1.57076776    
   1.45931494       1.22450995      -0.00000000       130.308289       1.57077467    
   1.49743104       1.17759299      -0.00000000       130.308289       1.57077467    
   0.00000000       0.00000000       0.00000000       130.308289       1.57077467    
   1.41972899       1.27019501      -0.00000000       130.308289       1.57077467    
   0.00000000       0.00000000       0.00000000       117.719582       1.57077169    
   1.49743104       1.17759299      -0.00000000       117.719582       1.57077169    
   1.53403997       1.12949002      -0.00000000       117.719582       1.57077169    
   1.56910396       1.08024895      -0.00000000       117.719582       1.57077169    
   1.37871301       1.31459999      -0.00000000       139.726486       1.57077742    
   1.41972899       1.27019501      -0.00000000       139.726486       1.57077742    
   0.00000000       0.00000000       0.00000000       139.726486       1.57077742    
   1.33631003       1.35768199      -0.00000000       139.726486       1.57077742    
   1.20120299       1.47855902      -0.00000000       142.298462       1.57078445    
   1.24750996       1.43970299      -0.00000000       142.298462       1.57078445    
   0.00000000       0.00000000       0.00000000       142.298462       1.57078445    
   1.15368605       1.51592600      -0.00000000       142.298462       1.57078445    
   0.00000000       0.00000000       0.00000000       142.657486       1.57078075    
   1.24750996       1.43970299      -0.00000000       142.657486       1.57078075    
   1.29255998       1.39939702      -0.00000000       142.657486       1.57078075    
   1.33631003       1.35768199      -0.00000000       142.657486       1.57078075    
   1.10500801       1.55176699      -0.00000000       141.373001       1.57078815    
   1.15368605       1.51592600      -0.00000000       141.373001       1.57078815    
   0.00000000       0.00000000       0.00000000       141.373001       1.57078815    
   1.05521798       1.58604598      -0.00000000       141.373001       1.57078815    
  0.899676025       1.67916906      -0.00000000       140.080399       1.57079411    
  0.952499986       1.64977801      -0.00000000       140.080399       1.57079411    
   0.00000000       0.00000000       0.00000000       140.080399       1.57079411    
  0.845947027       1.70686805      -0.00000000       140.080399       1.57079411    
   0.00000000       0.00000000       0.00000000       140.572586       1.57079124    
  0.952499986       1.64977801      -0.00000000       140.572586       1.57079124    
   1.00436401       1.61872697      -0.00000000       140.572586       1.57079124    
   1.05521798       1.58604598      -0.00000000       140.572586       1.57079124    
  0.791365981       1.73284900      -0.00000000       140.022278       1.57079649    
  0.845947027       1.70686805      -0.00000000       140.022278       1.57079649    
   0.00000000       0.00000000       0.00000000       140.022278       1.57079649    
  0.735987008       1.75708497      -0.00000000       140.022278       1.57079649    
  0.565632999       1.81908906      -0.00000000       140.933212       1.57080007    
  0.623063982       1.80022705      -0.00000000       140.933212       1.57080007    
   0.00000000       0.00000000       0.00000000       140.933212       1.57080007    
  0.507632971       1.83611906      -0.00000000       140.933212       1.57080007    
   0.00000000       0.00000000       0.00000000       140.343918       1.57079840    
  0.623063982       1.80022705      -0.00000000       140.343918       1.57079840    
  0.679867983       1.77955198      -0.00000000       140.343918       1.57079840    
  0.735987008       1.75708497      -0.00000000       140.343918       1.57079840    
  0.449120998       1.85130095      -0.00000000       141.613480       1.57080126    
  0.507632971       1.83611906      -0.00000000       141.613480       1.57080126    
   0.00000000       0.00000000       0.00000000       141.613480       1.57080126    
  0.390157014       1.86461902      -0.00000000       141.613480       1.57080126    
  0.211146995       1.89326203      -0.00000000       142.888306       1.57080281    
  0.271109998       1.88560998      -0.00000000       142.888306       1.57080281    
   0.00000000       0.00000000       0.00000000       142.888306       1.57080281    
  0.150970995       1.89900804      -0.00000000       142.888306       1.57080281    
   0.00000000       0.00000000       0.00000000       142.306427       1.57080221    
  0.271109998       1.88560998      -0.00000000       142.306427       1.57080221    
  0.330799997       1.87605906      -0.00000000       142.306427       1.57080221    
  0.390157014       1.86461902      -0.00000000       142.306427       1.57080221    
   9.06440020E-02   1.90284204      -0.00000000       143.282364       1.57080317    
  0.150970995       1.89900804      -0.00000000       143.282364       1.57080317    
   0.00000000       0.00000000       0.00000000       143.282364       1.57080317    
   3.02249994E-02   1.90476000      -0.00000000       143.282364       1.57080317    
 -0.150970995       1.89900804      -0.00000000       143.496475       1.57080281    
  -9.06440020E-02   1.90284204      -0.00000000       143.496475       1.57080281    
   0.00000000       0.00000000       0.00000000       143.496475       1.57080281    
 -0.211146995       1.89326203      -0.00000000       143.496475       1.57080281    
   0.00000000       0.00000000       0.00000000       143.479919       1.57080305    
  -9.06440020E-02   1.90284204      -0.00000000       143.479919       1.57080305    
  -3.02249994E-02   1.90476000      -0.00000000       143.479919       1.57080305    
   3.02249994E-02   1.90476000      -0.00000000       143.479919       1.57080305    
 -0.271109998       1.88560998      -0.00000000       143.338531       1.57080221    
 -0.211146995       1.89326203      -0.00000000       143.338531       1.57080221    
   0.00000000       0.00000000       0.00000000       143.338531       1.57080221    
 -0.330799997       1.87605906      -0.00000000       143.338531       1.57080221    
 -0.507632971       1.83611906      -0.00000000       142.972305       1.57080019    
 -0.449120998       1.85130095      -0.00000000       142.972305       1.57080019    
   0.00000000       0.00000000       0.00000000       142.972305       1.57080019    
 -0.565632999       1.81908906      -0.00000000       142.972305       1.57080019    
   0.00000000       0.00000000       0.00000000       143.139160       1.57080150    
 -0.449120998       1.85130095      -0.00000000       143.139160       1.57080150    
 -0.390157014       1.86461902      -0.00000000       143.139160       1.57080150    
 -0.330799997       1.87605906      -0.00000000       143.139160       1.57080150    
 -0.623063982       1.80022705      -0.00000000       142.954041       1.57079864    
 -0.565632999       1.81908906      -0.00000000       142.954041       1.57079864    
   0.00000000       0.00000000       0.00000000       142.954041       1.57079864    
 -0.679867983       1.77955198      -0.00000000       142.954041       1.57079864    
 -0.845947027       1.70686805      -0.00000000       143.907288       1.57079434    
 -0.791365981       1.73284900      -0.00000000       143.907288       1.57079434    
   0.00000000       0.00000000       0.00000000       143.907288       1.57079434    
 -0.899676025       1.67916906      -0.00000000       143.907288       1.57079434    
   0.00000000       0.00000000       0.00000000       143.261887       1.57079673    
 -0.791365981       1.73284900      -0.00000000       143.261887       1.57079673    
 -0.735987008       1.75708497      -0.00000000       143.261887       1.57079673    
 -0.679867983       1.77955198      -0.00000000       143.261887       1.57079673    
 -0.952499986       1.64977801      -0.00000000       144.879471       1.57079160    
 -0.899676025       1.67916906      -0.00000000       144.879471       1.57079160    
   0.00000000       0.00000000       0.00000000       144.879471       1.57079160    
  -1.00436401       1.61872697      -0.00000000       144.879471       1.57079160    
  -1.15368605       1.51592600      -0.00000000       147.115097       1.57078516    
  -1.10500801       1.55176699      -0.00000000       147.115097       1.57078516    
   0.00000000       0.00000000       0.00000000       147.115097       1.57078516    
  -1.20120299       1.47855902      -0.00000000       147.115097       1.57078516    
   0.00000000       0.00000000       0.00000000       146.021927       1.57078850    
  -1.10500801       1.55176699      -0.00000000       146.021927       1.57078850    
  -1.05521798       1.58604598      -0.00000000       146.021927       1.57078850    
  -1.00436401       1.61872697      -0.00000000       146.021927       1.57078850    
  -1.24750996       1.43970299      -0.00000000       147.456604       1.57078171    
  -1.20120299       1.47855902      -0.00000000       147.456604       1.57078171    
   0.00000000       0.00000000       0.00000000       147.456604       1.57078171    
  -1.29255998       1.39939702      -0.00000000       147.456604       1.57078171    
  -1.41972899       1.27019501      -0.00000000       134.704224       1.57077610    
  -1.37871301       1.31459999      -0.00000000       134.704224       1.57077610    
   0.00000000       0.00000000       0.00000000       134.704224       1.57077610    
  -1.45931494       1.22450995      -0.00000000       134.704224       1.57077610    
   0.00000000       0.00000000       0.00000000       144.448868       1.57077861    
  -1.37871301       1.31459999      -0.00000000       144.448868       1.57077861    
  -1.33631003       1.35768199      -0.00000000       144.448868       1.57077861    
  -1.29255998       1.39939702      -0.00000000       144.448868       1.57077861    
  -1.49743104       1.17759299      -0.00000000       121.624138       1.57077348    
  -1.45931494       1.22450995      -0.00000000       121.624138       1.57077348    
   0.00000000       0.00000000       0.00000000       121.624138       1.57077348    
  -1.53403997       1.12949002      -0.00000000       121.624138       1.57077348    
  -1.63445795      0.978555024      -0.00000000       94.7571182       1.57076526    
  -1.60258806       1.02992105      -0.00000000       94.7571182       1.57076526    
   0.00000000       0.00000000       0.00000000       94.7571182       1.57076526    
  -1.66468298      0.926204979      -0.00000000       94.7571182       1.57076526    
   0.00000000       0.00000000       0.00000000       108.060036       1.57076991    
  -1.60258806       1.02992105      -0.00000000       108.060036       1.57076991    
  -1.56910396       1.08024895      -0.00000000       108.060036       1.57076991    
  -1.53403997       1.12949002      -0.00000000       108.060036       1.57076991    
  -1.69323206      0.872922003      -0.00000000       81.9207001       1.57075834    
  -1.66468298      0.926204979      -0.00000000       81.9207001       1.57075834    
   0.00000000       0.00000000       0.00000000       81.9207001       1.57075834    
  -1.72007501      0.818759024      -0.00000000       81.9207001       1.57075834    
  -1.79011405      0.651548028      -0.00000000       58.0540199       1.57073510    
  -1.76854098      0.708016992      -0.00000000       58.0540199       1.57073510    
   0.00000000       0.00000000       0.00000000       58.0540199       1.57073510    
  -1.80988598      0.594424009      -0.00000000       58.0540199       1.57073510    
   0.00000000       0.00000000       0.00000000       69.7094498       1.57074881    
  -1.76854098      0.708016992      -0.00000000       69.7094498       1.57074881    
  -1.74518704      0.763773024      -0.00000000       69.7094498       1.57074881    
  -1.72007501      0.818759024      -0.00000000       69.7094498       1.57074881    
  -1.82783401      0.536701024      -0.00000000       46.8521843       1.57071459    
  -1.80988598      0.594424009      -0.00000000       46.8521843       1.57071459    
   0.00000000       0.00000000       0.00000000       46.8521843       1.57071459    
  -1.84394205      0.478437006      -0.00000000       46.8521843       1.57071459    
  -1.88107097      0.300992996      -0.00000000       25.4119434       1.57062149    
  -1.87057400      0.360523999      -0.00000000       25.4119434       1.57062149    
   0.00000000       0.00000000       0.00000000       25.4119434       1.57062149    
  -1.88967395      0.241159007      -0.00000000       25.4119434       1.57062149    
   0.00000000       0.00000000       0.00000000       35.9921799       1.57068181    
  -1.87057400      0.360523999      -0.00000000       35.9921799       1.57068181    
  -1.85819399      0.419692010      -0.00000000       35.9921799       1.57068181    
  -1.84394205      0.478437006      -0.00000000       35.9921799       1.57068181    
  -1.89637399      0.181081995      -0.00000000       15.0156078       1.57047808    
  -1.88967395      0.241159007      -0.00000000       15.0156078       1.57047808    
   0.00000000       0.00000000       0.00000000       15.0156078       1.57047808    
  -1.90116501      0.120823003      -0.00000000       15.0156078       1.57047808    
  -1.90404105      -6.04420006E-02  -0.00000000       5.67757654      -1.56983876    
  -1.90499997       0.00000000      -0.00000000       5.67757654      -1.56983876    
   0.00000000       0.00000000       0.00000000       5.67757654      -1.56983876    
  -1.90116501     -0.120823003      -0.00000000       5.67757654      -1.56983876    
   0.00000000       0.00000000       0.00000000       4.65927029       1.56970155    
  -1.90499997       0.00000000      -0.00000000       4.65927029       1.56970155    
  -1.90404105       6.04420006E-02  -0.00000000       4.65927029       1.56970155    
  -1.90116501      0.120823003      -0.00000000       4.65927029       1.56970155    
  -1.89637399     -0.181081995      -0.00000000       16.0217457      -1.57043672    
  -1.90116501     -0.120823003      -0.00000000       16.0217457      -1.57043672    
   0.00000000       0.00000000       0.00000000       16.0217457      -1.57043672    
  -1.88967395     -0.241159007      -0.00000000       16.0217457      -1.57043672    
  -1.85819399     -0.419692010      -0.00000000       37.1453438      -1.57062376    
  -1.87057400     -0.360523999      -0.00000000       37.1453438      -1.57062376    
   0.00000000       0.00000000       0.00000000       37.1453438      -1.57062376    
  -1.84394205     -0.478437006      -0.00000000       37.1453438      -1.57062376    
   0.00000000       0.00000000       0.00000000       26.4606743      -1.57056653    
  -1.87057400     -0.360523999      -0.00000000       26.4606743      -1.57056653    
  -1.88107097     -0.300992996      -0.00000000       26.4606743      -1.57056653    
  -1.88967395     -0.241159007      -0.00000000       26.4606743      -1.57056653    
  -1.82783401     -0.536701024      -0.00000000       48.0998230      -1.57065725    
  -1.84394205     -0.478437006      -0.00000000       48.0998230      -1.57065725    
   0.00000000       0.00000000       0.00000000       48.0998230      -1.57065725    
  -1.80988598     -0.594424009      -0.00000000       48.0998230      -1.57065725    
  -1.74518704     -0.763773024      -0.00000000       71.1769333      -1.57069528    
  -1.76854098     -0.708016992      -0.00000000       71.1769333      -1.57069528    
   0.00000000       0.00000000       0.00000000       71.1769333      -1.57069528    
  -1.72007501     -0.818759024      -0.00000000       71.1769333      -1.57069528    
   0.00000000       0.00000000       0.00000000       59.3930054      -1.57067907    
  -1.76854098     -0.708016992      -0.00000000       59.3930054      -1.57067907    
  -1.79011405     -0.651548028      -0.00000000       59.3930054      -1.57067907    
  -1.80988598     -0.594424009      -0.00000000       59.3930054      -1.57067907    
  -1.69323206     -0.872922003      -0.00000000       83.4780426      -1.57070780    
  -1.72007501     -0.818759024      -0.00000000       83.4780426      -1.57070780    
   0.00000000       0.00000000       0.00000000       83.4780426      -1.57070780    
  -1.66468298     -0.926204979      -0.00000000       83.4780426      -1.57070780    
  -1.56910396      -1.08024895      -0.00000000       109.425423      -1.57072639    
  -1.60258806      -1.02992105      -0.00000000       109.425423      -1.57072639    
   0.00000000       0.00000000       0.00000000       109.425423      -1.57072639    
  -1.53403997      -1.12949002      -0.00000000       109.425423      -1.57072639    
   0.00000000       0.00000000       0.00000000       96.2871399      -1.57071793    
  -1.60258806      -1.02992105      -0.00000000       96.2871399      -1.57071793    
  -1.63445795     -0.978555024      -0.00000000       96.2871399      -1.57071793    
  -1.66468298     -0.926204979      -0.00000000       96.2871399      -1.57071793    
  -1.49743104      -1.17759299      -0.00000000       122.659645      -1.57073331    
  -1.53403997      -1.12949002      -0.00000000       122.659645      -1.57073331    
   0.00000000       0.00000000       0.00000000       122.659645      -1.57073331    
  -1.45931494      -1.22450995      -0.00000000       122.659645      -1.57073331    
  -1.33631003      -1.35768199      -0.00000000       144.506088      -1.57074130    
  -1.37871301      -1.31459999      -0.00000000       144.506088      -1.57074130    
   0.00000000       0.00000000       0.00000000       144.506088      -1.57074130    
  -1.29255998      -1.39939702      -0.00000000       144.506088      -1.57074130    
   0.00000000       0.00000000       0.00000000       135.243454      -1.57073867    
  -1.37871301      -1.31459999      -0.00000000       135.243454      -1.57073867    
  -1.41972899      -1.27019501      -0.00000000       135.243454      -1.57073867    
  -1.45931494      -1.22450995      -0.00000000       135.243454      -1.57073867    
  -1.24750996      -1.43970299      -0.00000000       147.082153      -1.57073939    
  -1.29255998      -1.39939702      -0.00000000       147.082153      -1.57073939    
   0.00000000       0.00000000       0.00000000       147.082153      -1.57073939    
  -1.20120299      -1.47855902      -0.00000000       147.082153      -1.57073939    
  -1.05521798      -1.58604598      -0.00000000       144.967392      -1.57073140    
  -1.10500801      -1.55176699      -0.00000000       144.967392      -1.57073140    
   0.00000000       0.00000000       0.00000000       144.967392      -1.57073140    
  -1.00436401      -1.61872697      -0.00000000       144.967392      -1.57073140    
   0.00000000       0.00000000       0.00000000       146.313004      -1.57073534    
  -1.10500801      -1.55176699      -0.00000000       146.313004      -1.57073534    
  -1.15368605      -1.51592600      -0.00000000       146.313004      -1.57073534    
  -1.20120299      -1.47855902      -0.00000000       146.313004      -1.57073534    
 -0.952499986      -1.64977801      -0.00000000       143.750031      -1.57072771    
  -1.00436401      -1.61872697      -0.00000000       143.750031      -1.57072771    
   0.00000000       0.00000000       0.00000000       143.750031      -1.57072771    
 -0.899676025      -1.67916906      -0.00000000       143.750031      -1.57072771    
 -0.735987008      -1.75708497      -0.00000000       142.400528      -1.57072186    
 -0.791365981      -1.73284900      -0.00000000       142.400528      -1.57072186    
   0.00000000       0.00000000       0.00000000       142.400528      -1.57072186    
 -0.679867983      -1.77955198      -0.00000000       142.400528      -1.57072186    
   0.00000000       0.00000000       0.00000000       142.849152      -1.57072437    
 -0.791365981      -1.73284900      -0.00000000       142.849152      -1.57072437    
 -0.845947027      -1.70686805      -0.00000000       142.849152      -1.57072437    
 -0.899676025      -1.67916906      -0.00000000       142.849152      -1.57072437    
 -0.623063982      -1.80022705      -0.00000000       142.347076      -1.57071996    
 -0.679867983      -1.77955198      -0.00000000       142.347076      -1.57071996    
   0.00000000       0.00000000       0.00000000       142.347076      -1.57071996    
 -0.565632999      -1.81908906      -0.00000000       142.347076      -1.57071996    
 -0.390157014      -1.86461902      -0.00000000       142.902252      -1.57071757    
 -0.449120998      -1.85130095      -0.00000000       142.902252      -1.57071757    
   0.00000000       0.00000000       0.00000000       142.902252      -1.57071757    
 -0.330799997      -1.87605906      -0.00000000       142.902252      -1.57071757    
   0.00000000       0.00000000       0.00000000       142.573486      -1.57071841    
 -0.449120998      -1.85130095      -0.00000000       142.573486      -1.57071841    
 -0.507632971      -1.83611906      -0.00000000       142.573486      -1.57071841    
 -0.565632999      -1.81908906      -0.00000000       142.573486      -1.57071841    
 -0.271109998      -1.88560998      -0.00000000       143.245544      -1.57071686    
 -0.330799997      -1.87605906      -0.00000000       143.245544      -1.57071686    
   0.00000000       0.00000000       0.00000000       143.245544      -1.57071686    
 -0.211146995      -1.89326203      -0.00000000       143.245544      -1.57071686    
  -3.02249994E-02  -1.90476000      -0.00000000       143.538010      -1.57071626    
  -9.06440020E-02  -1.90284204      -0.00000000       143.538010      -1.57071626    
   0.00000000       0.00000000       0.00000000       143.538010      -1.57071626    
   3.02249994E-02  -1.90476000      -0.00000000       143.538010      -1.57071626    
   0.00000000       0.00000000       0.00000000       143.484039      -1.57071650    
  -9.06440020E-02  -1.90284204      -0.00000000       143.484039      -1.57071650    
 -0.150970995      -1.89900804      -0.00000000       143.484039      -1.57071650    
 -0.211146995      -1.89326203      -0.00000000       143.484039      -1.57071650    
   9.06440020E-02  -1.90284204      -0.00000000       143.397614      -1.57071626    
   3.02249994E-02  -1.90476000      -0.00000000       143.397614      -1.57071626    
   0.00000000       0.00000000       0.00000000       143.397614      -1.57071626    
  0.150970995      -1.89900804      -0.00000000       143.397614      -1.57071626    
  0.330799997      -1.87605906      -0.00000000       142.570450      -1.57071674    
  0.271109998      -1.88560998      -0.00000000       142.570450      -1.57071674    
   0.00000000       0.00000000       0.00000000       142.570450      -1.57071674    
  0.390157014      -1.86461902      -0.00000000       142.570450      -1.57071674    
   0.00000000       0.00000000       0.00000000       143.072098      -1.57071638    
  0.271109998      -1.88560998      -0.00000000       143.072098      -1.57071638    
  0.211146995      -1.89326203      -0.00000000       143.072098      -1.57071638    
  0.150970995      -1.89900804      -0.00000000       143.072098      -1.57071638    
  0.449120998      -1.85130095      -0.00000000       142.027603      -1.57071733    
  0.390157014      -1.86461902      -0.00000000       142.027603      -1.57071733    
   0.00000000       0.00000000       0.00000000       142.027603      -1.57071733    
  0.507632971      -1.83611906      -0.00000000       142.027603      -1.57071733    
  0.679867983      -1.77955198      -0.00000000       141.132446      -1.57071960    
  0.623063982      -1.80022705      -0.00000000       141.132446      -1.57071960    
   0.00000000       0.00000000       0.00000000       141.132446      -1.57071960    
  0.735987008      -1.75708497      -0.00000000       141.132446      -1.57071960    
   0.00000000       0.00000000       0.00000000       141.509750      -1.57071829    
  0.623063982      -1.80022705      -0.00000000       141.509750      -1.57071829    
  0.565632999      -1.81908906      -0.00000000       141.509750      -1.57071829    
  0.507632971      -1.83611906      -0.00000000       141.509750      -1.57071829    
  0.791365981      -1.73284900      -0.00000000       141.066971      -1.57072175    
  0.735987008      -1.75708497      -0.00000000       141.066971      -1.57072175    
   0.00000000       0.00000000       0.00000000       141.066971      -1.57072175    
  0.845947027      -1.70686805      -0.00000000       141.066971      -1.57072175    
   1.00436401      -1.61872697      -0.00000000       141.895279      -1.57072747    
  0.952499986      -1.64977801      -0.00000000       141.895279      -1.57072747    
   0.00000000       0.00000000       0.00000000       141.895279      -1.57072747    
   1.05521798      -1.58604598      -0.00000000       141.895279      -1.57072747    
   0.00000000       0.00000000       0.00000000       141.324326      -1.57072437    
  0.952499986      -1.64977801      -0.00000000       141.324326      -1.57072437    
  0.899676025      -1.67916906      -0.00000000       141.324326      -1.57072437    
  0.845947027      -1.70686805      -0.00000000       141.324326      -1.57072437    
   1.10500801      -1.55176699      -0.00000000       142.632233      -1.57073104    
   1.05521798      -1.58604598      -0.00000000       142.632233      -1.57073104    
   0.00000000       0.00000000       0.00000000       142.632233      -1.57073104    
   1.15368605      -1.51592600      -0.00000000       142.632233      -1.57073104    
   1.29255998      -1.39939702      -0.00000000       143.270676      -1.57073843    
   1.24750996      -1.43970299      -0.00000000       143.270676      -1.57073843    
   0.00000000       0.00000000       0.00000000       143.270676      -1.57073843    
   1.33631003      -1.35768199      -0.00000000       143.270676      -1.57073843    
   0.00000000       0.00000000       0.00000000       143.321487      -1.57073486    
   1.24750996      -1.43970299      -0.00000000       143.321487      -1.57073486    
   1.20120299      -1.47855902      -0.00000000       143.321487      -1.57073486    