 VARIABLES="X" "Y" "Z" "abs(p) (Pa)" "angle(p) (rad)"
ZONE N=    802,E =     800, F=FEPOINT, ET=QUADRILATERAL
   1.90499997       0.00000000      -0.00000000      0.193931416       1.57768023    
   1.90404105      -6.04420006E-02  -0.00000000      0.193931416       1.57768023    
   0.00000000       0.00000000       0.00000000      0.193931416       1.57768023    
   1.90404105       6.04420006E-02  -0.00000000      0.193931416       1.57768023    
   1.88967395      0.241159007      -0.00000000      0.195122555       1.57763815    
   1.89637399      0.181081995      -0.00000000      0.195122555       1.57763815    
   0.00000000       0.00000000       0.00000000      0.195122555       1.57763815    
   1.88107097      0.300992996      -0.00000000      0.195122555       1.57763815    
   0.00000000       0.00000000       0.00000000      0.194211379       1.57767022    
   1.89637399      0.181081995      -0.00000000      0.194211379       1.57767022    
   1.90116501      0.120823003      -0.00000000      0.194211379       1.57767022    
   1.90404105       6.04420006E-02  -0.00000000      0.194211379       1.57767022    
   1.87057400      0.360523999      -0.00000000      0.196789756       1.57758021    
   1.88107097      0.300992996      -0.00000000      0.196789756       1.57758021    
   0.00000000       0.00000000       0.00000000      0.196789756       1.57758021    
   1.85819399      0.419692010      -0.00000000      0.196789756       1.57758021    
   1.80988598      0.594424009      -0.00000000      0.202902257       1.57737577    
   1.82783401      0.536701024      -0.00000000      0.202902257       1.57737577    
   0.00000000       0.00000000       0.00000000      0.202902257       1.57737577    
   1.79011405      0.651548028      -0.00000000      0.202902257       1.57737577    
   0.00000000       0.00000000       0.00000000      0.199298605       1.57749474    
   1.82783401      0.536701024      -0.00000000      0.199298605       1.57749474    
   1.84394205      0.478437006      -0.00000000      0.199298605       1.57749474    
   1.85819399      0.419692010      -0.00000000      0.199298605       1.57749474    
   1.76854098      0.708016992      -0.00000000      0.207736000       1.57722259    
   1.79011405      0.651548028      -0.00000000      0.207736000       1.57722259    
   0.00000000       0.00000000       0.00000000      0.207736000       1.57722259    
   1.74518704      0.763773024      -0.00000000      0.207736000       1.57722259    
   1.66468298      0.926204979      -0.00000000      0.221018896       1.57683623    
   1.69323206      0.872922003      -0.00000000      0.221018896       1.57683623    
   0.00000000       0.00000000       0.00000000      0.221018896       1.57683623    
   1.63445795      0.978555024      -0.00000000      0.221018896       1.57683623    
   0.00000000       0.00000000       0.00000000      0.213794947       1.57704043    
   1.69323206      0.872922003      -0.00000000      0.213794947       1.57704043    
   1.72007501      0.818759024      -0.00000000      0.213794947       1.57704043    
   1.74518704      0.763773024      -0.00000000      0.213794947       1.57704043    
   1.60258806       1.02992105      -0.00000000      0.229120463       1.57662261    
   1.63445795      0.978555024      -0.00000000      0.229120463       1.57662261    
   0.00000000       0.00000000       0.00000000      0.229120463       1.57662261    
   1.56910396       1.08024895      -0.00000000      0.229120463       1.57662261    
   1.45931494       1.22450995      -0.00000000      0.244757771       1.57625020    
   1.49743104       1.17759299      -0.00000000      0.244757771       1.57625020    
   0.00000000       0.00000000       0.00000000      0.244757771       1.57625020    
   1.41972899       1.27019501      -0.00000000      0.244757771       1.57625020    
   0.00000000       0.00000000       0.00000000      0.237381458       1.57641983    
   1.49743104       1.17759299      -0.00000000      0.237381458       1.57641983    
   1.53403997       1.12949002      -0.00000000      0.237381458       1.57641983    
   1.56910396       1.08024895      -0.00000000      0.237381458       1.57641983    
   1.37871301       1.31459999      -0.00000000      0.248128861       1.57617605    
   1.41972899       1.27019501      -0.00000000      0.248128861       1.57617605    
   0.00000000       0.00000000       0.00000000      0.248128861       1.57617605    
   1.33631003       1.35768199      -0.00000000      0.248128861       1.57617605    
   1.20120299       1.47855902      -0.00000000      0.235280365       1.57647002    
   1.24750996       1.43970299      -0.00000000      0.235280365       1.57647002    
   0.00000000       0.00000000       0.00000000      0.235280365       1.57647002    
   1.15368605       1.51592600      -0.00000000      0.235280365       1.57647002    
   0.00000000       0.00000000       0.00000000      0.243718147       1.57627344    
   1.24750996       1.43970299      -0.00000000      0.243718147       1.57627344    
   1.29255998       1.39939702      -0.00000000      0.243718147       1.57627344    
   1.33631003       1.35768199      -0.00000000      0.243718147       1.57627344    
   1.10500801       1.55176699      -0.00000000      0.226300985       1.57669520    
   1.15368605       1.51592600      -0.00000000      0.226300985       1.57669520    
   0.00000000       0.00000000       0.00000000      0.226300985       1.57669520    
   1.05521798       1.58604598      -0.00000000      0.226300985       1.57669520    
  0.899676025       1.67916906      -0.00000000      0.210663885       1.57713330    
  0.952499986       1.64977801      -0.00000000      0.210663885       1.57713330    
   0.00000000       0.00000000       0.00000000      0.210663885       1.57713330    
  0.845947027       1.70686805      -0.00000000      0.210663885       1.57713330    
   0.00000000       0.00000000       0.00000000      0.217942849       1.57692158    
  0.952499986       1.64977801      -0.00000000      0.217942849       1.57692158    
   1.00436401       1.61872697      -0.00000000      0.217942849       1.57692158    
   1.05521798       1.58604598      -0.00000000      0.217942849       1.57692158    
  0.791365981       1.73284900      -0.00000000      0.204696789       1.57731807    
  0.845947027       1.70686805      -0.00000000      0.204696789       1.57731807    
   0.00000000       0.00000000       0.00000000      0.204696789       1.57731807    
  0.735987008       1.75708497      -0.00000000      0.204696789       1.57731807    
  0.565632999       1.81908906      -0.00000000      0.196672946       1.57758427    
  0.623063982       1.80022705      -0.00000000      0.196672946       1.57758427    
   0.00000000       0.00000000       0.00000000      0.196672946       1.57758427    
  0.507632971       1.83611906      -0.00000000      0.196672946       1.57758427    
   0.00000000       0.00000000       0.00000000      0.200087726       1.57746828    
  0.623063982       1.80022705      -0.00000000      0.200087726       1.57746828    
  0.679867983       1.77955198      -0.00000000      0.200087726       1.57746828    
  0.735987008       1.75708497      -0.00000000      0.200087726       1.57746828    
  0.449120998       1.85130095      -0.00000000      0.194251552       1.57766879    
  0.507632971       1.83611906      -0.00000000      0.194251552       1.57766879    
   0.00000000       0.00000000       0.00000000      0.194251552       1.57766879    
  0.390157014       1.86461902      -0.00000000      0.194251552       1.57766879    
  0.211146995       1.89326203      -0.00000000      0.191701412       1.57776034    
  0.271109998       1.88560998      -0.00000000      0.191701412       1.57776034    
   0.00000000       0.00000000       0.00000000      0.191701412       1.57776034    
  0.150970995       1.89900804      -0.00000000      0.191701412       1.57776034    
   0.00000000       0.00000000       0.00000000      0.192602724       1.57772768    
  0.271109998       1.88560998      -0.00000000      0.192602724       1.57772768    
  0.330799997       1.87605906      -0.00000000      0.192602724       1.57772768    
  0.390157014       1.86461902      -0.00000000      0.192602724       1.57772768    
   9.06440020E-02   1.90284204      -0.00000000      0.191318259       1.57777429    
  0.150970995       1.89900804      -0.00000000      0.191318259       1.57777429    
   0.00000000       0.00000000       0.00000000      0.191318259       1.57777429    
   3.02249994E-02   1.90476000      -0.00000000      0.191318259       1.57777429    
 -0.150970995       1.89900804      -0.00000000      0.191803619       1.57775652    
  -9.06440020E-02   1.90284204      -0.00000000      0.191803619       1.57775652    
   0.00000000       0.00000000       0.00000000      0.191803619       1.57775652    
 -0.211146995       1.89326203      -0.00000000      0.191803619       1.57775652    
   0.00000000       0.00000000       0.00000000      0.191336721       1.57777357    
  -9.06440020E-02   1.90284204      -0.00000000      0.191336721       1.57777357    
  -3.02249994E-02   1.90476000      -0.00000000      0.191336721       1.57777357    
   3.02249994E-02   1.90476000      -0.00000000      0.191336721       1.57777357    
 -0.271109998       1.88560998      -0.00000000      0.192935511       1.57771575    
 -0.211146995       1.89326203      -0.00000000      0.192935511       1.57771575    
   0.00000000       0.00000000       0.00000000      0.192935511       1.57771575    
 -0.330799997       1.87605906      -0.00000000      0.192935511       1.57771575    
 -0.507632971       1.83611906      -0.00000000      0.197469980       1.57755685    
 -0.449120998       1.85130095      -0.00000000      0.197469980       1.57755685    
   0.00000000       0.00000000       0.00000000      0.197469980       1.57755685    
 -0.565632999       1.81908906      -0.00000000      0.197469980       1.57755685    
   0.00000000       0.00000000       0.00000000      0.194790080       1.57764983    
 -0.449120998       1.85130095      -0.00000000      0.194790080       1.57764983    
 -0.390157014       1.86461902      -0.00000000      0.194790080       1.57764983    
 -0.330799997       1.87605906      -0.00000000      0.194790080       1.57764983    
 -0.623063982       1.80022705      -0.00000000      0.201252058       1.57742977    
 -0.565632999       1.81908906      -0.00000000      0.201252058       1.57742977    
   0.00000000       0.00000000       0.00000000      0.201252058       1.57742977    
 -0.679867983       1.77955198      -0.00000000      0.201252058       1.57742977    
 -0.845947027       1.70686805      -0.00000000      0.212519899       1.57707787    
 -0.791365981       1.73284900      -0.00000000      0.212519899       1.57707787    
   0.00000000       0.00000000       0.00000000      0.212519899       1.57707787    
 -0.899676025       1.67916906      -0.00000000      0.212519899       1.57707787    
   0.00000000       0.00000000       0.00000000      0.206264541       1.57726848    
 -0.791365981       1.73284900      -0.00000000      0.206264541       1.57726848    
 -0.735987008       1.75708497      -0.00000000      0.206264541       1.57726848    
 -0.679867983       1.77955198      -0.00000000      0.206264541       1.57726848    
 -0.952499986       1.64977801      -0.00000000      0.219893619       1.57686722    
 -0.899676025       1.67916906      -0.00000000      0.219893619       1.57686722    
   0.00000000       0.00000000       0.00000000      0.219893619       1.57686722    
  -1.00436401       1.61872697      -0.00000000      0.219893619       1.57686722    
  -1.15368605       1.51592600      -0.00000000      0.236454189       1.57644188    
  -1.10500801       1.55176699      -0.00000000      0.236454189       1.57644188    
   0.00000000       0.00000000       0.00000000      0.236454189       1.57644188    
  -1.20120299       1.47855902      -0.00000000      0.236454189       1.57644188    
   0.00000000       0.00000000       0.00000000      0.228106275       1.57664859    
  -1.10500801       1.55176699      -0.00000000      0.228106275       1.57664859    
  -1.05521798       1.58604598      -0.00000000      0.228106275       1.57664859    
  -1.00436401       1.61872697      -0.00000000      0.228106275       1.57664859    
  -1.24750996       1.43970299      -0.00000000      0.243902087       1.57626939    
  -1.20120299       1.47855902      -0.00000000      0.243902087       1.57626939    
   0.00000000       0.00000000       0.00000000      0.243902087       1.57626939    
  -1.29255998       1.39939702      -0.00000000      0.243902087       1.57626939    
  -1.41972899       1.27019501      -0.00000000      0.242951080       1.57629073    
  -1.37871301       1.31459999      -0.00000000      0.242951080       1.57629073    
   0.00000000       0.00000000       0.00000000      0.242951080       1.57629073    
  -1.45931494       1.22450995      -0.00000000      0.242951080       1.57629073    
   0.00000000       0.00000000       0.00000000      0.247311190       1.57619381    
  -1.37871301       1.31459999      -0.00000000      0.247311190       1.57619381    
  -1.33631003       1.35768199      -0.00000000      0.247311190       1.57619381    
  -1.29255998       1.39939702      -0.00000000      0.247311190       1.57619381    
  -1.49743104       1.17759299      -0.00000000      0.234609619       1.57648623    
  -1.45931494       1.22450995      -0.00000000      0.234609619       1.57648623    
   0.00000000       0.00000000       0.00000000      0.234609619       1.57648623    
  -1.53403997       1.12949002      -0.00000000      0.234609619       1.57648623    
  -1.63445795      0.978555024      -0.00000000      0.217420474       1.57693624    
  -1.60258806       1.02992105      -0.00000000      0.217420474       1.57693624    
   0.00000000       0.00000000       0.00000000      0.217420474       1.57693624    
  -1.66468298      0.926204979      -0.00000000      0.217420474       1.57693624    
   0.00000000       0.00000000       0.00000000      0.225714579       1.57671058    
  -1.60258806       1.02992105      -0.00000000      0.225714579       1.57671058    
  -1.56910396       1.08024895      -0.00000000      0.225714579       1.57671058    
  -1.53403997       1.12949002      -0.00000000      0.225714579       1.57671058    
  -1.69323206      0.872922003      -0.00000000      0.210196495       1.57714736    
  -1.66468298      0.926204979      -0.00000000      0.210196495       1.57714736    
   0.00000000       0.00000000       0.00000000      0.210196495       1.57714736    
  -1.72007501      0.818759024      -0.00000000      0.210196495       1.57714736    
  -1.79011405      0.651548028      -0.00000000      0.199708700       1.57748103    
  -1.76854098      0.708016992      -0.00000000      0.199708700       1.57748103    
   0.00000000       0.00000000       0.00000000      0.199708700       1.57748103    
  -1.80988598      0.594424009      -0.00000000      0.199708700       1.57748103    
   0.00000000       0.00000000       0.00000000      0.204276606       1.57733142    
  -1.76854098      0.708016992      -0.00000000      0.204276606       1.57733142    
  -1.74518704      0.763773024      -0.00000000      0.204276606       1.57733142    
  -1.72007501      0.818759024      -0.00000000      0.204276606       1.57733142    
  -1.82783401      0.536701024      -0.00000000      0.196331412       1.57759607    
  -1.80988598      0.594424009      -0.00000000      0.196331412       1.57759607    
   0.00000000       0.00000000       0.00000000      0.196331412       1.57759607    
  -1.84394205      0.478437006      -0.00000000      0.196331412       1.57759607    
  -1.88107097      0.300992996      -0.00000000      0.192321509       1.57773781    
  -1.87057400      0.360523999      -0.00000000      0.192321509       1.57773781    
   0.00000000       0.00000000       0.00000000      0.192321509       1.57773781    
  -1.88967395      0.241159007      -0.00000000      0.192321509       1.57773781    
   0.00000000       0.00000000       0.00000000      0.193942532       1.57767975    
  -1.87057400      0.360523999      -0.00000000      0.193942532       1.57767975    
  -1.85819399      0.419692010      -0.00000000      0.193942532       1.57767975    
  -1.84394205      0.478437006      -0.00000000      0.193942532       1.57767975    
  -1.89637399      0.181081995      -0.00000000      0.191443741       1.57776964    
  -1.88967395      0.241159007      -0.00000000      0.191443741       1.57776964    
   0.00000000       0.00000000       0.00000000      0.191443741       1.57776964    
  -1.90116501      0.120823003      -0.00000000      0.191443741       1.57776964    
  -1.90404105      -6.04420006E-02  -0.00000000      0.191117153       1.57778156    
  -1.90499997       0.00000000      -0.00000000      0.191117153       1.57778156    
   0.00000000       0.00000000       0.00000000      0.191117153       1.57778156    
  -1.90116501     -0.120823003      -0.00000000      0.191117153       1.57778156    
   0.00000000       0.00000000       0.00000000      0.191080660       1.57778287    
  -1.90499997       0.00000000      -0.00000000      0.191080660       1.57778287    
  -1.90404105       6.04420006E-02  -0.00000000      0.191080660       1.57778287    
  -1.90116501      0.120823003      -0.00000000      0.191080660       1.57778287    
  -1.89637399     -0.181081995      -0.00000000      0.191603437       1.57776380    
  -1.90116501     -0.120823003      -0.00000000      0.191603437       1.57776380    
   0.00000000       0.00000000       0.00000000      0.191603437       1.57776380    
  -1.88967395     -0.241159007      -0.00000000      0.191603437       1.57776380    
  -1.85819399     -0.419692010      -0.00000000      0.194642797       1.57765508    
  -1.87057400     -0.360523999      -0.00000000      0.194642797       1.57765508    
   0.00000000       0.00000000       0.00000000      0.194642797       1.57765508    
  -1.84394205     -0.478437006      -0.00000000      0.194642797       1.57765508    
   0.00000000       0.00000000       0.00000000      0.192763254       1.57772195    
  -1.87057400     -0.360523999      -0.00000000      0.192763254       1.57772195    
  -1.88107097     -0.300992996      -0.00000000      0.192763254       1.57772195    
  -1.88967395     -0.241159007      -0.00000000      0.192763254       1.57772195    
  -1.82783401     -0.536701024      -0.00000000      0.197345734       1.57756102    
  -1.84394205     -0.478437006      -0.00000000      0.197345734       1.57756102    
   0.00000000       0.00000000       0.00000000      0.197345734       1.57756102    
  -1.80988598     -0.594424009      -0.00000000      0.197345734       1.57756102    
  -1.74518704     -0.763773024      -0.00000000      0.206191435       1.57727075    
  -1.76854098     -0.708016992      -0.00000000      0.206191435       1.57727075    
   0.00000000       0.00000000       0.00000000      0.206191435       1.57727075    
  -1.72007501     -0.818759024      -0.00000000      0.206191435       1.57727075    
   0.00000000       0.00000000       0.00000000      0.201152429       1.57743299    
  -1.76854098     -0.708016992      -0.00000000      0.201152429       1.57743299    
  -1.79011405     -0.651548028      -0.00000000      0.201152429       1.57743299    
  -1.80988598     -0.594424009      -0.00000000      0.201152429       1.57743299    
  -1.69323206     -0.872922003      -0.00000000      0.212476358       1.57707918    
  -1.72007501     -0.818759024      -0.00000000      0.212476358       1.57707918    
   0.00000000       0.00000000       0.00000000      0.212476358       1.57707918    
  -1.66468298     -0.926204979      -0.00000000      0.212476358       1.57707918    
  -1.56910396      -1.08024895      -0.00000000      0.228131130       1.57664788    
  -1.60258806      -1.02992105      -0.00000000      0.228131130       1.57664788    
   0.00000000       0.00000000       0.00000000      0.228131130       1.57664788    
  -1.53403997      -1.12949002      -0.00000000      0.228131130       1.57664788    
   0.00000000       0.00000000       0.00000000      0.219882891       1.57686746    
  -1.60258806      -1.02992105      -0.00000000      0.219882891       1.57686746    
  -1.63445795     -0.978555024      -0.00000000      0.219882891       1.57686746    
  -1.66468298     -0.926204979      -0.00000000      0.219882891       1.57686746    
  -1.49743104      -1.17759299      -0.00000000      0.236515328       1.57644033    
  -1.53403997      -1.12949002      -0.00000000      0.236515328       1.57644033    
   0.00000000       0.00000000       0.00000000      0.236515328       1.57644033    
  -1.45931494      -1.22450995      -0.00000000      0.236515328       1.57644033    
  -1.33631003      -1.35768199      -0.00000000      0.247408673       1.57619178    
  -1.37871301      -1.31459999      -0.00000000      0.247408673       1.57619178    
   0.00000000       0.00000000       0.00000000      0.247408673       1.57619178    
  -1.29255998      -1.39939702      -0.00000000      0.247408673       1.57619178    
   0.00000000       0.00000000       0.00000000      0.243994981       1.57626724    
  -1.37871301      -1.31459999      -0.00000000      0.243994981       1.57626724    
  -1.41972899      -1.27019501      -0.00000000      0.243994981       1.57626724    
  -1.45931494      -1.22450995      -0.00000000      0.243994981       1.57626724    
  -1.24750996      -1.43970299      -0.00000000      0.243043885       1.57628870    
  -1.29255998      -1.39939702      -0.00000000      0.243043885       1.57628870    
   0.00000000       0.00000000       0.00000000      0.243043885       1.57628870    
  -1.20120299      -1.47855902      -0.00000000      0.243043885       1.57628870    
  -1.05521798      -1.58604598      -0.00000000      0.225829154       1.57670760    
  -1.10500801      -1.55176699      -0.00000000      0.225829154       1.57670760    
   0.00000000       0.00000000       0.00000000      0.225829154       1.57670760    
  -1.00436401      -1.61872697      -0.00000000      0.225829154       1.57670760    
   0.00000000       0.00000000       0.00000000      0.234711736       1.57648373    
  -1.10500801      -1.55176699      -0.00000000      0.234711736       1.57648373    
  -1.15368605      -1.51592600      -0.00000000      0.234711736       1.57648373    
  -1.20120299      -1.47855902      -0.00000000      0.234711736       1.57648373    
 -0.952499986      -1.64977801      -0.00000000      0.217545643       1.57693279    
  -1.00436401      -1.61872697      -0.00000000      0.217545643       1.57693279    
   0.00000000       0.00000000       0.00000000      0.217545643       1.57693279    
 -0.899676025      -1.67916906      -0.00000000      0.217545643       1.57693279    
 -0.735987008      -1.75708497      -0.00000000      0.204415962       1.57732701    
 -0.791365981      -1.73284900      -0.00000000      0.204415962       1.57732701    
   0.00000000       0.00000000       0.00000000      0.204415962       1.57732701    
 -0.679867983      -1.77955198      -0.00000000      0.204415962       1.57732701    
   0.00000000       0.00000000       0.00000000      0.210328996       1.57714331    
 -0.791365981      -1.73284900      -0.00000000      0.210328996       1.57714331    
 -0.845947027      -1.70686805      -0.00000000      0.210328996       1.57714331    
 -0.899676025      -1.67916906      -0.00000000      0.210328996       1.57714331    
 -0.623063982      -1.80022705      -0.00000000      0.199854106       1.57747614    
 -0.679867983      -1.77955198      -0.00000000      0.199854106       1.57747614    
   0.00000000       0.00000000       0.00000000      0.199854106       1.57747614    
 -0.565632999      -1.81908906      -0.00000000      0.199854106       1.57747614    
 -0.390157014      -1.86461902      -0.00000000      0.194099963       1.57767415    
 -0.449120998      -1.85130095      -0.00000000      0.194099963       1.57767415    
   0.00000000       0.00000000       0.00000000      0.194099963       1.57767415    
 -0.330799997      -1.87605906      -0.00000000      0.194099963       1.57767415    
   0.00000000       0.00000000       0.00000000      0.196482763       1.57759082    
 -0.449120998      -1.85130095      -0.00000000      0.196482763       1.57759082    
 -0.507632971      -1.83611906      -0.00000000      0.196482763       1.57759082    
 -0.565632999      -1.81908906      -0.00000000      0.196482763       1.57759082    
 -0.271109998      -1.88560998      -0.00000000      0.192492008       1.57773173    
 -0.330799997      -1.87605906      -0.00000000      0.192492008       1.57773173    
   0.00000000       0.00000000       0.00000000      0.192492008       1.57773173    
 -0.211146995      -1.89326203      -0.00000000      0.192492008       1.57773173    
  -3.02249994E-02  -1.90476000      -0.00000000      0.191255018       1.57777655    
  -9.06440020E-02  -1.90284204      -0.00000000      0.191255018       1.57777655    
   0.00000000       0.00000000       0.00000000      0.191255018       1.57777655    
   3.02249994E-02  -1.90476000      -0.00000000      0.191255018       1.57777655    
   0.00000000       0.00000000       0.00000000      0.191617593       1.57776332    
  -9.06440020E-02  -1.90284204      -0.00000000      0.191617593       1.57776332    
 -0.150970995      -1.89900804      -0.00000000      0.191617593       1.57776332    
 -0.211146995      -1.89326203      -0.00000000      0.191617593       1.57776332    
   9.06440020E-02  -1.90284204      -0.00000000      0.191292435       1.57777524    
   3.02249994E-02  -1.90476000      -0.00000000      0.191292435       1.57777524    
   0.00000000       0.00000000       0.00000000      0.191292435       1.57777524    
  0.150970995      -1.89900804      -0.00000000      0.191292435       1.57777524    
  0.330799997      -1.87605906      -0.00000000      0.192950428       1.57771516    
  0.271109998      -1.88560998      -0.00000000      0.192950428       1.57771516    
   0.00000000       0.00000000       0.00000000      0.192950428       1.57771516    
  0.390157014      -1.86461902      -0.00000000      0.192950428       1.57771516    
   0.00000000       0.00000000       0.00000000      0.191783160       1.57775736    
  0.271109998      -1.88560998      -0.00000000      0.191783160       1.57775736    
  0.211146995      -1.89326203      -0.00000000      0.191783160       1.57775736    
  0.150970995      -1.89900804      -0.00000000      0.191783160       1.57775736    
  0.449120998      -1.85130095      -0.00000000      0.194839567       1.57764804    
  0.390157014      -1.86461902      -0.00000000      0.194839567       1.57764804    
   0.00000000       0.00000000       0.00000000      0.194839567       1.57764804    
  0.507632971      -1.83611906      -0.00000000      0.194839567       1.57764804    
  0.679867983      -1.77955198      -0.00000000      0.201372713       1.57742572    
  0.623063982      -1.80022705      -0.00000000      0.201372713       1.57742572    
   0.00000000       0.00000000       0.00000000      0.201372713       1.57742572    
  0.735987008      -1.75708497      -0.00000000      0.201372713       1.57742572    
   0.00000000       0.00000000       0.00000000      0.197553307       1.57755399    
  0.623063982      -1.80022705      -0.00000000      0.197553307       1.57755399    
  0.565632999      -1.81908906      -0.00000000      0.197553307       1.57755399    
  0.507632971      -1.83611906      -0.00000000      0.197553307       1.57755399    
  0.791365981      -1.73284900      -0.00000000      0.206421494       1.57726359    
  0.735987008      -1.75708497      -0.00000000      0.206421494       1.57726359    
   0.00000000       0.00000000       0.00000000      0.206421494       1.57726359    
  0.845947027      -1.70686805      -0.00000000      0.206421494       1.57726359    
   1.00436401      -1.61872697      -0.00000000      0.220131278       1.57686067    
  0.952499986      -1.64977801      -0.00000000      0.220131278       1.57686067    
   0.00000000       0.00000000       0.00000000      0.220131278       1.57686067    
   1.05521798      -1.58604598      -0.00000000      0.220131278       1.57686067    
   0.00000000       0.00000000       0.00000000      0.212714747       1.57707214    
  0.952499986      -1.64977801      -0.00000000      0.212714747       1.57707214    
  0.899676025      -1.67916906      -0.00000000      0.212714747       1.57707214    
  0.845947027      -1.70686805      -0.00000000      0.212714747       1.57707214    
   1.10500801      -1.55176699      -0.00000000      0.228401214       1.57664096    
   1.05521798      -1.58604598      -0.00000000      0.228401214       1.57664096    
   0.00000000       0.00000000       0.00000000      0.228401214       1.57664096    
   1.15368605      -1.51592600      -0.00000000      0.228401214       1.57664096    
   1.29255998      -1.39939702      -0.00000000      0.244353071       1.57625926    
   1.24750996      -1.43970299      -0.00000000      0.244353071       1.57625926    
   0.00000000       0.00000000       0.00000000      0.244353071       1.57625926    
   1.33631003      -1.35768199      -0.00000000      0.244353071       1.57625926    
   0.00000000       0.00000000       0.00000000      0.236839384       1.57643270    
   1.24750996      -1.43970299      -0.00000000      0.236839384       1.57643270    
   1.20120299      -1.47855902      -0.00000000      0.236839384       1.57643270    