 VARIABLES="X" "Y" "Z" "abs(p) (Pa)" "angle(p) (rad)"
ZONE N=    802,E =     800, F=FEPOINT, ET=QUADRILATERAL
   1.90499997       0.00000000      -0.00000000       952.627625     -0.494819701    
   1.90404105      -6.04420006E-02  -0.00000000       952.627625     -0.494819701    
   0.00000000       0.00000000       0.00000000       952.627625     -0.494819701    
   1.90404105       6.04420006E-02  -0.00000000       952.627625     -0.494819701    
   1.88967395      0.241159007      -0.00000000       951.605530     -0.495185673    
   1.89637399      0.181081995      -0.00000000       951.605530     -0.495185673    
   0.00000000       0.00000000       0.00000000       951.605530     -0.495185673    
   1.88107097      0.300992996      -0.00000000       951.605530     -0.495185673    
   0.00000000       0.00000000       0.00000000       952.498962     -0.494968265    
   1.89637399      0.181081995      -0.00000000       952.498962     -0.494968265    
   1.90116501      0.120823003      -0.00000000       952.498962     -0.494968265    
   1.90404105       6.04420006E-02  -0.00000000       952.498962     -0.494968265    
   1.87057400      0.360523999      -0.00000000       950.695435     -0.495897979    
   1.88107097      0.300992996      -0.00000000       950.695435     -0.495897979    
   0.00000000       0.00000000       0.00000000       950.695435     -0.495897979    
   1.85819399      0.419692010      -0.00000000       950.695435     -0.495897979    
   1.80988598      0.594424009      -0.00000000       955.891479     -0.502998054    
   1.82783401      0.536701024      -0.00000000       955.891479     -0.502998054    
   0.00000000       0.00000000       0.00000000       955.891479     -0.502998054    
   1.79011405      0.651548028      -0.00000000       955.891479     -0.502998054    
   0.00000000       0.00000000       0.00000000       951.758972     -0.498318017    
   1.82783401      0.536701024      -0.00000000       951.758972     -0.498318017    
   1.84394205      0.478437006      -0.00000000       951.758972     -0.498318017    
   1.85819399      0.419692010      -0.00000000       951.758972     -0.498318017    
   1.76854098      0.708016992      -0.00000000       964.731934     -0.510677278    
   1.79011405      0.651548028      -0.00000000       964.731934     -0.510677278    
   0.00000000       0.00000000       0.00000000       964.731934     -0.510677278    
   1.74518704      0.763773024      -0.00000000       964.731934     -0.510677278    
   1.66468298      0.926204979      -0.00000000       1000.65625     -0.536074936    
   1.69323206      0.872922003      -0.00000000       1000.65625     -0.536074936    
   0.00000000       0.00000000       0.00000000       1000.65625     -0.536074936    
   1.63445795      0.978555024      -0.00000000       1000.65625     -0.536074936    
   0.00000000       0.00000000       0.00000000       979.591431     -0.521843314    
   1.69323206      0.872922003      -0.00000000       979.591431     -0.521843314    
   1.72007501      0.818759024      -0.00000000       979.591431     -0.521843314    
   1.74518704      0.763773024      -0.00000000       979.591431     -0.521843314    
   1.60258806       1.02992105      -0.00000000       1026.74219     -0.552133083    
   1.63445795      0.978555024      -0.00000000       1026.74219     -0.552133083    
   0.00000000       0.00000000       0.00000000       1026.74219     -0.552133083    
   1.56910396       1.08024895      -0.00000000       1026.74219     -0.552133083    
   1.45931494       1.22450995      -0.00000000       1078.67920     -0.580546141    
   1.49743104       1.17759299      -0.00000000       1078.67920     -0.580546141    
   0.00000000       0.00000000       0.00000000       1078.67920     -0.580546141    
   1.41972899       1.27019501      -0.00000000       1078.67920     -0.580546141    
   0.00000000       0.00000000       0.00000000       1054.98853     -0.568089485    
   1.49743104       1.17759299      -0.00000000       1054.98853     -0.568089485    
   1.53403997       1.12949002      -0.00000000       1054.98853     -0.568089485    
   1.56910396       1.08024895      -0.00000000       1054.98853     -0.568089485    
   1.37871301       1.31459999      -0.00000000       1075.72473     -0.579247594    
   1.41972899       1.27019501      -0.00000000       1075.72473     -0.579247594    
   0.00000000       0.00000000       0.00000000       1075.72473     -0.579247594    
   1.33631003       1.35768199      -0.00000000       1075.72473     -0.579247594    
   1.20120299       1.47855902      -0.00000000       938.787109     -0.498172075    
   1.24750996       1.43970299      -0.00000000       938.787109     -0.498172075    
   0.00000000       0.00000000       0.00000000       938.787109     -0.498172075    
   1.15368605       1.51592600      -0.00000000       938.787109     -0.498172075    
   0.00000000       0.00000000       0.00000000       1019.69513     -0.549438834    
   1.24750996       1.43970299      -0.00000000       1019.69513     -0.549438834    
   1.29255998       1.39939702      -0.00000000       1019.69513     -0.549438834    
   1.33631003       1.35768199      -0.00000000       1019.69513     -0.549438834    
   1.10500801       1.55176699      -0.00000000       858.292236     -0.433437496    
   1.15368605       1.51592600      -0.00000000       858.292236     -0.433437496    
   0.00000000       0.00000000       0.00000000       858.292236     -0.433437496    
   1.05521798       1.58604598      -0.00000000       858.292236     -0.433437496    
  0.899676025       1.67916906      -0.00000000       726.515503     -0.273158997    
  0.952499986       1.64977801      -0.00000000       726.515503     -0.273158997    
   0.00000000       0.00000000       0.00000000       726.515503     -0.273158997    
  0.845947027       1.70686805      -0.00000000       726.515503     -0.273158997    
   0.00000000       0.00000000       0.00000000       786.400452     -0.357796699    
  0.952499986       1.64977801      -0.00000000       786.400452     -0.357796699    
   1.00436401       1.61872697      -0.00000000       786.400452     -0.357796699    
   1.05521798       1.58604598      -0.00000000       786.400452     -0.357796699    
  0.791365981       1.73284900      -0.00000000       680.029541     -0.181894615    
  0.845947027       1.70686805      -0.00000000       680.029541     -0.181894615    
   0.00000000       0.00000000       0.00000000       680.029541     -0.181894615    
  0.735987008       1.75708497      -0.00000000       680.029541     -0.181894615    
  0.565632999       1.81908906      -0.00000000       624.557983       1.37814702E-02
  0.623063982       1.80022705      -0.00000000       624.557983       1.37814702E-02
   0.00000000       0.00000000       0.00000000       624.557983       1.37814702E-02
  0.507632971       1.83611906      -0.00000000       624.557983       1.37814702E-02
   0.00000000       0.00000000       0.00000000       646.327637      -8.56446549E-02
  0.623063982       1.80022705      -0.00000000       646.327637      -8.56446549E-02
  0.679867983       1.77955198      -0.00000000       646.327637      -8.56446549E-02
  0.735987008       1.75708497      -0.00000000       646.327637      -8.56446549E-02
  0.449120998       1.85130095      -0.00000000       613.921387      0.114599720    
  0.507632971       1.83611906      -0.00000000       613.921387      0.114599720    
   0.00000000       0.00000000       0.00000000       613.921387      0.114599720    
  0.390157014       1.86461902      -0.00000000       613.921387      0.114599720    
  0.211146995       1.89326203      -0.00000000       621.867249      0.310974181    
  0.271109998       1.88560998      -0.00000000       621.867249      0.310974181    
   0.00000000       0.00000000       0.00000000       621.867249      0.310974181    
  0.150970995       1.89900804      -0.00000000       621.867249      0.310974181    
   0.00000000       0.00000000       0.00000000       613.381042      0.214189813    
  0.271109998       1.88560998      -0.00000000       613.381042      0.214189813    
  0.330799997       1.87605906      -0.00000000       613.381042      0.214189813    
  0.390157014       1.86461902      -0.00000000       613.381042      0.214189813    
   9.06440020E-02   1.90284204      -0.00000000       638.500183      0.402251065    
  0.150970995       1.89900804      -0.00000000       638.500183      0.402251065    
   0.00000000       0.00000000       0.00000000       638.500183      0.402251065    
   3.02249994E-02   1.90476000      -0.00000000       638.500183      0.402251065    
 -0.150970995       1.89900804      -0.00000000       693.472412      0.560540259    
  -9.06440020E-02   1.90284204      -0.00000000       693.472412      0.560540259    
   0.00000000       0.00000000       0.00000000       693.472412      0.560540259    
 -0.211146995       1.89326203      -0.00000000       693.472412      0.560540259    
   0.00000000       0.00000000       0.00000000       662.653687      0.485708326    
  -9.06440020E-02   1.90284204      -0.00000000       662.653687      0.485708326    
  -3.02249994E-02   1.90476000      -0.00000000       662.653687      0.485708326    
   3.02249994E-02   1.90476000      -0.00000000       662.653687      0.485708326    
 -0.271109998       1.88560998      -0.00000000       730.139099      0.626211405    
 -0.211146995       1.89326203      -0.00000000       730.139099      0.626211405    
   0.00000000       0.00000000       0.00000000       730.139099      0.626211405    
 -0.330799997       1.87605906      -0.00000000       730.139099      0.626211405    
 -0.507632971       1.83611906      -0.00000000       821.211060      0.729901314    
 -0.449120998       1.85130095      -0.00000000       821.211060      0.729901314    
   0.00000000       0.00000000       0.00000000       821.211060      0.729901314    
 -0.565632999       1.81908906      -0.00000000       821.211060      0.729901314    
   0.00000000       0.00000000       0.00000000       772.432495      0.682534397    
 -0.449120998       1.85130095      -0.00000000       772.432495      0.682534397    
 -0.390157014       1.86461902      -0.00000000       772.432495      0.682534397    
 -0.330799997       1.87605906      -0.00000000       772.432495      0.682534397    
 -0.623063982       1.80022705      -0.00000000       876.525513      0.768990159    
 -0.565632999       1.81908906      -0.00000000       876.525513      0.768990159    
   0.00000000       0.00000000       0.00000000       876.525513      0.768990159    
 -0.679867983       1.77955198      -0.00000000       876.525513      0.768990159    
 -0.845947027       1.70686805      -0.00000000       1011.24060      0.826294601    
 -0.791365981       1.73284900      -0.00000000       1011.24060      0.826294601    
   0.00000000       0.00000000       0.00000000       1011.24060      0.826294601    
 -0.899676025       1.67916906      -0.00000000       1011.24060      0.826294601    
   0.00000000       0.00000000       0.00000000       939.560242      0.800834358    
 -0.791365981       1.73284900      -0.00000000       939.560242      0.800834358    
 -0.735987008       1.75708497      -0.00000000       939.560242      0.800834358    
 -0.679867983       1.77955198      -0.00000000       939.560242      0.800834358    
 -0.952499986       1.64977801      -0.00000000       1091.25024      0.846083045    
 -0.899676025       1.67916906      -0.00000000       1091.25024      0.846083045    
   0.00000000       0.00000000       0.00000000       1091.25024      0.846083045    
  -1.00436401       1.61872697      -0.00000000       1091.25024      0.846083045    
  -1.15368605       1.51592600      -0.00000000       1267.43579      0.871857584    
  -1.10500801       1.55176699      -0.00000000       1267.43579      0.871857584    
   0.00000000       0.00000000       0.00000000       1267.43579      0.871857584    
  -1.20120299       1.47855902      -0.00000000       1267.43579      0.871857584    
   0.00000000       0.00000000       0.00000000       1177.81934      0.861031830    
  -1.10500801       1.55176699      -0.00000000       1177.81934      0.861031830    
  -1.05521798       1.58604598      -0.00000000       1177.81934      0.861031830    
  -1.00436401       1.61872697      -0.00000000       1177.81934      0.861031830    
  -1.24750996       1.43970299      -0.00000000       1352.41199      0.879529715    
  -1.20120299       1.47855902      -0.00000000       1352.41199      0.879529715    
   0.00000000       0.00000000       0.00000000       1352.41199      0.879529715    
  -1.29255998       1.39939702      -0.00000000       1352.41199      0.879529715    
  -1.41972899       1.27019501      -0.00000000       1409.85852      0.892490268    
  -1.37871301       1.31459999      -0.00000000       1409.85852      0.892490268    
   0.00000000       0.00000000       0.00000000       1409.85852      0.892490268    
  -1.45931494       1.22450995      -0.00000000       1409.85852      0.892490268    
   0.00000000       0.00000000       0.00000000       1409.28516      0.885739148    
  -1.37871301       1.31459999      -0.00000000       1409.28516      0.885739148    
  -1.33631003       1.35768199      -0.00000000       1409.28516      0.885739148    
  -1.29255998       1.39939702      -0.00000000       1409.28516      0.885739148    
  -1.49743104       1.17759299      -0.00000000       1381.42029      0.899221718    
  -1.45931494       1.22450995      -0.00000000       1381.42029      0.899221718    
   0.00000000       0.00000000       0.00000000       1381.42029      0.899221718    
  -1.53403997       1.12949002      -0.00000000       1381.42029      0.899221718    
  -1.63445795      0.978555024      -0.00000000       1319.09851      0.910064876    
  -1.60258806       1.02992105      -0.00000000       1319.09851      0.910064876    
   0.00000000       0.00000000       0.00000000       1319.09851      0.910064876    
  -1.66468298      0.926204979      -0.00000000       1319.09851      0.910064876    
   0.00000000       0.00000000       0.00000000       1348.69092      0.905128181    
  -1.60258806       1.02992105      -0.00000000       1348.69092      0.905128181    
  -1.56910396       1.08024895      -0.00000000       1348.69092      0.905128181    
  -1.53403997       1.12949002      -0.00000000       1348.69092      0.905128181    
  -1.69323206      0.872922003      -0.00000000       1295.62964      0.914027154    
  -1.66468298      0.926204979      -0.00000000       1295.62964      0.914027154    
   0.00000000       0.00000000       0.00000000       1295.62964      0.914027154    
  -1.72007501      0.818759024      -0.00000000       1295.62964      0.914027154    
  -1.79011405      0.651548028      -0.00000000       1269.76111      0.919351399    
  -1.76854098      0.708016992      -0.00000000       1269.76111      0.919351399    
   0.00000000       0.00000000       0.00000000       1269.76111      0.919351399    
  -1.80988598      0.594424009      -0.00000000       1269.76111      0.919351399    
   0.00000000       0.00000000       0.00000000       1279.54163      0.917094886    
  -1.76854098      0.708016992      -0.00000000       1279.54163      0.917094886    
  -1.74518704      0.763773024      -0.00000000       1279.54163      0.917094886    
  -1.72007501      0.818759024      -0.00000000       1279.54163      0.917094886    
  -1.82783401      0.536701024      -0.00000000       1264.91077      0.920944750    
  -1.80988598      0.594424009      -0.00000000       1264.91077      0.920944750    
   0.00000000       0.00000000       0.00000000       1264.91077      0.920944750    
  -1.84394205      0.478437006      -0.00000000       1264.91077      0.920944750    
  -1.88107097      0.300992996      -0.00000000       1264.44409      0.922794759    
  -1.87057400      0.360523999      -0.00000000       1264.44409      0.922794759    
   0.00000000       0.00000000       0.00000000       1264.44409      0.922794759    
  -1.88967395      0.241159007      -0.00000000       1264.44409      0.922794759    
   0.00000000       0.00000000       0.00000000       1263.68164      0.922060430    
  -1.87057400      0.360523999      -0.00000000       1263.68164      0.922060430    
  -1.85819399      0.419692010      -0.00000000       1263.68164      0.922060430    
  -1.84394205      0.478437006      -0.00000000       1263.68164      0.922060430    
  -1.89637399      0.181081995      -0.00000000       1265.43457      0.923229992    
  -1.88967395      0.241159007      -0.00000000       1265.43457      0.923229992    
   0.00000000       0.00000000       0.00000000       1265.43457      0.923229992    
  -1.90116501      0.120823003      -0.00000000       1265.43457      0.923229992    
  -1.90404105      -6.04420006E-02  -0.00000000       1266.15588      0.923397422    
  -1.90499997       0.00000000      -0.00000000       1266.15588      0.923397422    
   0.00000000       0.00000000       0.00000000       1266.15588      0.923397422    
  -1.90116501     -0.120823003      -0.00000000       1266.15588      0.923397422    
   0.00000000       0.00000000       0.00000000       1265.91687      0.923423827    
  -1.90499997       0.00000000      -0.00000000       1265.91687      0.923423827    
  -1.90404105       6.04420006E-02  -0.00000000       1265.91687      0.923423827    
  -1.90116501      0.120823003      -0.00000000       1265.91687      0.923423827    
  -1.89637399     -0.181081995      -0.00000000       1265.89685      0.923150003    
  -1.90116501     -0.120823003      -0.00000000       1265.89685      0.923150003    
   0.00000000       0.00000000       0.00000000       1265.89685      0.923150003    
  -1.88967395     -0.241159007      -0.00000000       1265.89685      0.923150003    
  -1.85819399     -0.419692010      -0.00000000       1265.27319      0.921862841    
  -1.87057400     -0.360523999      -0.00000000       1265.27319      0.921862841    
   0.00000000       0.00000000       0.00000000       1265.27319      0.921862841    
  -1.84394205     -0.478437006      -0.00000000       1265.27319      0.921862841    
   0.00000000       0.00000000       0.00000000       1265.23376      0.922653198    
  -1.87057400     -0.360523999      -0.00000000       1265.23376      0.922653198    
  -1.88107097     -0.300992996      -0.00000000       1265.23376      0.922653198    
  -1.88967395     -0.241159007      -0.00000000       1265.23376      0.922653198    
  -1.82783401     -0.536701024      -0.00000000       1268.11304      0.920690298    
  -1.84394205     -0.478437006      -0.00000000       1268.11304      0.920690298    
   0.00000000       0.00000000       0.00000000       1268.11304      0.920690298    
  -1.80988598     -0.594424009      -0.00000000       1268.11304      0.920690298    
  -1.74518704     -0.763773024      -0.00000000       1285.89941      0.916696608    
  -1.76854098     -0.708016992      -0.00000000       1285.89941      0.916696608    
   0.00000000       0.00000000       0.00000000       1285.89941      0.916696608    
  -1.72007501     -0.818759024      -0.00000000       1285.89941      0.916696608    
   0.00000000       0.00000000       0.00000000       1274.48230      0.919032276    
  -1.76854098     -0.708016992      -0.00000000       1274.48230      0.919032276    
  -1.79011405     -0.651548028      -0.00000000       1274.48230      0.919032276    
  -1.80988598     -0.594424009      -0.00000000       1274.48230      0.919032276    
  -1.69323206     -0.872922003      -0.00000000       1303.76648      0.913602769    
  -1.72007501     -0.818759024      -0.00000000       1303.76648      0.913602769    
   0.00000000       0.00000000       0.00000000       1303.76648      0.913602769    
  -1.66468298     -0.926204979      -0.00000000       1303.76648      0.913602769    
  -1.56910396      -1.08024895      -0.00000000       1357.35266      0.904686928    
  -1.60258806      -1.02992105      -0.00000000       1357.35266      0.904686928    
   0.00000000       0.00000000       0.00000000       1357.35266      0.904686928    
  -1.53403997      -1.12949002      -0.00000000       1357.35266      0.904686928    
   0.00000000       0.00000000       0.00000000       1328.10950      0.909626067    
  -1.60258806      -1.02992105      -0.00000000       1328.10950      0.909626067    
  -1.63445795     -0.978555024      -0.00000000       1328.10950      0.909626067    
  -1.66468298     -0.926204979      -0.00000000       1328.10950      0.909626067    
  -1.49743104      -1.17759299      -0.00000000       1388.46936      0.898770452    
  -1.53403997      -1.12949002      -0.00000000       1388.46936      0.898770452    
   0.00000000       0.00000000       0.00000000       1388.46936      0.898770452    
  -1.45931494      -1.22450995      -0.00000000       1388.46936      0.898770452    
  -1.33631003      -1.35768199      -0.00000000       1410.68335      0.885039151    
  -1.37871301      -1.31459999      -0.00000000       1410.68335      0.885039151    
   0.00000000       0.00000000       0.00000000       1410.68335      0.885039151    
  -1.29255998      -1.39939702      -0.00000000       1410.68335      0.885039151    
   0.00000000       0.00000000       0.00000000       1414.01526      0.891979396    
  -1.37871301      -1.31459999      -0.00000000       1414.01526      0.891979396    
  -1.41972899      -1.27019501      -0.00000000       1414.01526      0.891979396    
  -1.45931494      -1.22450995      -0.00000000       1414.01526      0.891979396    
  -1.24750996      -1.43970299      -0.00000000       1350.80432      0.878518879    
  -1.29255998      -1.39939702      -0.00000000       1350.80432      0.878518879    
   0.00000000       0.00000000       0.00000000       1350.80432      0.878518879    
  -1.20120299      -1.47855902      -0.00000000       1350.80432      0.878518879    
  -1.05521798      -1.58604598      -0.00000000       1170.33777      0.859167337    
  -1.10500801      -1.55176699      -0.00000000       1170.33777      0.859167337    
   0.00000000       0.00000000       0.00000000       1170.33777      0.859167337    
  -1.00436401      -1.61872697      -0.00000000       1170.33777      0.859167337    
   0.00000000       0.00000000       0.00000000       1262.36243      0.870479882    
  -1.10500801      -1.55176699      -0.00000000       1262.36243      0.870479882    
  -1.15368605      -1.51592600      -0.00000000       1262.36243      0.870479882    
  -1.20120299      -1.47855902      -0.00000000       1262.36243      0.870479882    
 -0.952499986      -1.64977801      -0.00000000       1082.73730      0.843762457    
  -1.00436401      -1.61872697      -0.00000000       1082.73730      0.843762457    
   0.00000000       0.00000000       0.00000000       1082.73730      0.843762457    
 -0.899676025      -1.67916906      -0.00000000       1082.73730      0.843762457    
 -0.735987008      -1.75708497      -0.00000000       932.439514      0.797537327    
 -0.791365981      -1.73284900      -0.00000000       932.439514      0.797537327    
   0.00000000       0.00000000       0.00000000       932.439514      0.797537327    
 -0.679867983      -1.77955198      -0.00000000       932.439514      0.797537327    
   0.00000000       0.00000000       0.00000000       1002.95795      0.823489010    
 -0.791365981      -1.73284900      -0.00000000       1002.95795      0.823489010    
 -0.845947027      -1.70686805      -0.00000000       1002.95795      0.823489010    
 -0.899676025      -1.67916906      -0.00000000       1002.95795      0.823489010    
 -0.623063982      -1.80022705      -0.00000000       870.504639      0.765084565    
 -0.679867983      -1.77955198      -0.00000000       870.504639      0.765084565    
   0.00000000       0.00000000       0.00000000       870.504639      0.765084565    
 -0.565632999      -1.81908906      -0.00000000       870.504639      0.765084565    
 -0.390157014      -1.86461902      -0.00000000       768.399963      0.677046955    
 -0.449120998      -1.85130095      -0.00000000       768.399963      0.677046955    
   0.00000000       0.00000000       0.00000000       768.399963      0.677046955    
 -0.330799997      -1.87605906      -0.00000000       768.399963      0.677046955    
   0.00000000       0.00000000       0.00000000       816.146484      0.725250959    
 -0.449120998      -1.85130095      -0.00000000       816.146484      0.725250959    
 -0.507632971      -1.83611906      -0.00000000       816.146484      0.725250959    
 -0.565632999      -1.81908906      -0.00000000       816.146484      0.725250959    
 -0.271109998      -1.88560998      -0.00000000       726.730347      0.620075464    
 -0.330799997      -1.87605906      -0.00000000       726.730347      0.620075464    
   0.00000000       0.00000000       0.00000000       726.730347      0.620075464    
 -0.211146995      -1.89326203      -0.00000000       726.730347      0.620075464    
  -3.02249994E-02  -1.90476000      -0.00000000       659.973145      0.478312016    
  -9.06440020E-02  -1.90284204      -0.00000000       659.973145      0.478312016    
   0.00000000       0.00000000       0.00000000       659.973145      0.478312016    
   3.02249994E-02  -1.90476000      -0.00000000       659.973145      0.478312016    
   0.00000000       0.00000000       0.00000000       690.427856      0.553757787    
  -9.06440020E-02  -1.90284204      -0.00000000       690.427856      0.553757787    
 -0.150970995      -1.89900804      -0.00000000       690.427856      0.553757787    
 -0.211146995      -1.89326203      -0.00000000       690.427856      0.553757787    
   9.06440020E-02  -1.90284204      -0.00000000       636.352478      0.394104689    
   3.02249994E-02  -1.90476000      -0.00000000       636.352478      0.394104689    
   0.00000000       0.00000000       0.00000000       636.352478      0.394104689    
  0.150970995      -1.89900804      -0.00000000       636.352478      0.394104689    
  0.330799997      -1.87605906      -0.00000000       612.263489      0.204938605    
  0.271109998      -1.88560998      -0.00000000       612.263489      0.204938605    
   0.00000000       0.00000000       0.00000000       612.263489      0.204938605    
  0.390157014      -1.86461902      -0.00000000       612.263489      0.204938605    
   0.00000000       0.00000000       0.00000000       620.177856      0.302233040    
  0.271109998      -1.88560998      -0.00000000       620.177856      0.302233040    
  0.211146995      -1.89326203      -0.00000000       620.177856      0.302233040    
  0.150970995      -1.89900804      -0.00000000       620.177856      0.302233040    
  0.449120998      -1.85130095      -0.00000000       613.645752      0.104666539    
  0.390157014      -1.86461902      -0.00000000       613.645752      0.104666539    
   0.00000000       0.00000000       0.00000000       613.645752      0.104666539    
  0.507632971      -1.83611906      -0.00000000       613.645752      0.104666539    
  0.679867983      -1.77955198      -0.00000000       648.809326      -9.65984538E-02
  0.623063982      -1.80022705      -0.00000000       648.809326      -9.65984538E-02
   0.00000000       0.00000000       0.00000000       648.809326      -9.65984538E-02
  0.735987008      -1.75708497      -0.00000000       648.809326      -9.65984538E-02
   0.00000000       0.00000000       0.00000000       625.637085       3.10820411E-03
  0.623063982      -1.80022705      -0.00000000       625.637085       3.10820411E-03
  0.565632999      -1.81908906      -0.00000000       625.637085       3.10820411E-03
  0.507632971      -1.83611906      -0.00000000       625.637085       3.10820411E-03
  0.791365981      -1.73284900      -0.00000000       684.010742     -0.192811877    
  0.735987008      -1.75708497      -0.00000000       684.010742     -0.192811877    
   0.00000000       0.00000000       0.00000000       684.010742     -0.192811877    
  0.845947027      -1.70686805      -0.00000000       684.010742     -0.192811877    
   1.00436401      -1.61872697      -0.00000000       792.826111     -0.367038459    
  0.952499986      -1.64977801      -0.00000000       792.826111     -0.367038459    
   0.00000000       0.00000000       0.00000000       792.826111     -0.367038459    
   1.05521798      -1.58604598      -0.00000000       792.826111     -0.367038459    
   0.00000000       0.00000000       0.00000000       732.093567     -0.283769965    
  0.952499986      -1.64977801      -0.00000000       732.093567     -0.283769965    
  0.899676025      -1.67916906      -0.00000000       732.093567     -0.283769965    
  0.845947027      -1.70686805      -0.00000000       732.093567     -0.283769965    
   1.10500801      -1.55176699      -0.00000000       864.378357     -0.440551400    
   1.05521798      -1.58604598      -0.00000000       864.378357     -0.440551400    
   0.00000000       0.00000000       0.00000000       864.378357     -0.440551400    
   1.15368605      -1.51592600      -0.00000000       864.378357     -0.440551400    
   1.29255998      -1.39939702      -0.00000000       1021.09125     -0.551748335    
   1.24750996      -1.43970299      -0.00000000       1021.09125     -0.551748335    
   0.00000000       0.00000000       0.00000000       1021.09125     -0.551748335    
   1.33631003      -1.35768199      -0.00000000       1021.09125     -0.551748335    
   0.00000000       0.00000000       0.00000000       943.144775     -0.502752602    
   1.24750996      -1.43970299      -0.00000000       943.144775     -0.502752602    
   1.20120299      -1.47855902      -0.00000000       943.144775     -0.502752602    