 VARIABLES="X" "Y" "Z" "abs(p) (Pa)" "angle(p) (rad)"
ZONE N=    802,E =     800, F=FEPOINT, ET=QUADRILATERAL
   1.90499997       0.00000000      -0.00000000       2.79529595      -1.58399916    
   1.90404105      -6.04420006E-02  -0.00000000       2.79529595      -1.58399916    
   0.00000000       0.00000000       0.00000000       2.79529595      -1.58399916    
   1.90404105       6.04420006E-02  -0.00000000       2.79529595      -1.58399916    
   1.88967395      0.241159007      -0.00000000       146.645981      -1.57101727    
   1.89637399      0.181081995      -0.00000000       146.645981      -1.57101727    
   0.00000000       0.00000000       0.00000000       146.645981      -1.57101727    
   1.88107097      0.300992996      -0.00000000       146.645981      -1.57101727    
   0.00000000       0.00000000       0.00000000       74.5190506      -1.57126176    
   1.89637399      0.181081995      -0.00000000       74.5190506      -1.57126176    
   1.90116501      0.120823003      -0.00000000       74.5190506      -1.57126176    
   1.90404105       6.04420006E-02  -0.00000000       74.5190506      -1.57126176    
   1.87057400      0.360523999      -0.00000000       220.398346      -1.57093358    
   1.88107097      0.300992996      -0.00000000       220.398346      -1.57093358    
   0.00000000       0.00000000       0.00000000       220.398346      -1.57093358    
   1.85819399      0.419692010      -0.00000000       220.398346      -1.57093358    
   1.80988598      0.594424009      -0.00000000       374.331665      -1.57086694    
   1.82783401      0.536701024      -0.00000000       374.331665      -1.57086694    
   0.00000000       0.00000000       0.00000000       374.331665      -1.57086694    
   1.79011405      0.651548028      -0.00000000       374.331665      -1.57086694    
   0.00000000       0.00000000       0.00000000       296.126587      -1.57089162    
   1.82783401      0.536701024      -0.00000000       296.126587      -1.57089162    
   1.84394205      0.478437006      -0.00000000       296.126587      -1.57089162    
   1.85819399      0.419692010      -0.00000000       296.126587      -1.57089162    
   1.76854098      0.708016992      -0.00000000       455.946381      -1.57085073    
   1.79011405      0.651548028      -0.00000000       455.946381      -1.57085073    
   0.00000000       0.00000000       0.00000000       455.946381      -1.57085073    
   1.74518704      0.763773024      -0.00000000       455.946381      -1.57085073    
   1.66468298      0.926204979      -0.00000000       629.516174      -1.57083166    
   1.69323206      0.872922003      -0.00000000       629.516174      -1.57083166    
   0.00000000       0.00000000       0.00000000       629.516174      -1.57083166    
   1.63445795      0.978555024      -0.00000000       629.516174      -1.57083166    
   0.00000000       0.00000000       0.00000000       541.023499      -1.57083964    
   1.69323206      0.872922003      -0.00000000       541.023499      -1.57083964    
   1.72007501      0.818759024      -0.00000000       541.023499      -1.57083964    
   1.74518704      0.763773024      -0.00000000       541.023499      -1.57083964    
   1.60258806       1.02992105      -0.00000000       720.280151      -1.57082593    
   1.63445795      0.978555024      -0.00000000       720.280151      -1.57082593    
   0.00000000       0.00000000       0.00000000       720.280151      -1.57082593    
   1.56910396       1.08024895      -0.00000000       720.280151      -1.57082593    
   1.45931494       1.22450995      -0.00000000       898.655823      -1.57081890    
   1.49743104       1.17759299      -0.00000000       898.655823      -1.57081890    
   0.00000000       0.00000000       0.00000000       898.655823      -1.57081890    
   1.41972899       1.27019501      -0.00000000       898.655823      -1.57081890    
   0.00000000       0.00000000       0.00000000       811.641541      -1.57082200    
   1.49743104       1.17759299      -0.00000000       811.641541      -1.57082200    
   1.53403997       1.12949002      -0.00000000       811.641541      -1.57082200    
   1.56910396       1.08024895      -0.00000000       811.641541      -1.57082200    
   1.37871301       1.31459999      -0.00000000       963.496887      -1.57081604    
   1.41972899       1.27019501      -0.00000000       963.496887      -1.57081604    
   0.00000000       0.00000000       0.00000000       963.496887      -1.57081604    
   1.33631003       1.35768199      -0.00000000       963.496887      -1.57081604    
   1.20120299       1.47855902      -0.00000000       979.460754      -1.57080913    
   1.24750996       1.43970299      -0.00000000       979.460754      -1.57080913    
   0.00000000       0.00000000       0.00000000       979.460754      -1.57080913    
   1.15368605       1.51592600      -0.00000000       979.460754      -1.57080913    
   0.00000000       0.00000000       0.00000000       982.973877      -1.57081270    
   1.24750996       1.43970299      -0.00000000       982.973877      -1.57081270    
   1.29255998       1.39939702      -0.00000000       982.973877      -1.57081270    
   1.33631003       1.35768199      -0.00000000       982.973877      -1.57081270    
   1.10500801       1.55176699      -0.00000000       972.032776      -1.57080567    
   1.15368605       1.51592600      -0.00000000       972.032776      -1.57080567    
   0.00000000       0.00000000       0.00000000       972.032776      -1.57080567    
   1.05521798       1.58604598      -0.00000000       972.032776      -1.57080567    
  0.899676025       1.67916906      -0.00000000       961.307800      -1.57079983    
  0.952499986       1.64977801      -0.00000000       961.307800      -1.57079983    
   0.00000000       0.00000000       0.00000000       961.307800      -1.57079983    
  0.845947027       1.70686805      -0.00000000       961.307800      -1.57079983    
   0.00000000       0.00000000       0.00000000       965.551086      -1.57080257    
  0.952499986       1.64977801      -0.00000000       965.551086      -1.57080257    
   1.00436401       1.61872697      -0.00000000       965.551086      -1.57080257    
   1.05521798       1.58604598      -0.00000000       965.551086      -1.57080257    
  0.791365981       1.73284900      -0.00000000       960.196228      -1.57079732    
  0.845947027       1.70686805      -0.00000000       960.196228      -1.57079732    
   0.00000000       0.00000000       0.00000000       960.196228      -1.57079732    
  0.735987008       1.75708497      -0.00000000       960.196228      -1.57079732    
  0.565632999       1.81908906      -0.00000000       965.463257      -1.57079375    
  0.623063982       1.80022705      -0.00000000       965.463257      -1.57079375    
   0.00000000       0.00000000       0.00000000       965.463257      -1.57079375    
  0.507632971       1.83611906      -0.00000000       965.463257      -1.57079375    
   0.00000000       0.00000000       0.00000000       961.846436      -1.57079530    
  0.623063982       1.80022705      -0.00000000       961.846436      -1.57079530    
  0.679867983       1.77955198      -0.00000000       961.846436      -1.57079530    
  0.735987008       1.75708497      -0.00000000       961.846436      -1.57079530    
  0.449120998       1.85130095      -0.00000000       969.823669      -1.57079244    
  0.507632971       1.83611906      -0.00000000       969.823669      -1.57079244    
   0.00000000       0.00000000       0.00000000       969.823669      -1.57079244    
  0.390157014       1.86461902      -0.00000000       969.823669      -1.57079244    
  0.211146995       1.89326203      -0.00000000       978.233154      -1.57079113    
  0.271109998       1.88560998      -0.00000000       978.233154      -1.57079113    
   0.00000000       0.00000000       0.00000000       978.233154      -1.57079113    
  0.150970995       1.89900804      -0.00000000       978.233154      -1.57079113    
   0.00000000       0.00000000       0.00000000       974.369629      -1.57079160    
  0.271109998       1.88560998      -0.00000000       974.369629      -1.57079160    
  0.330799997       1.87605906      -0.00000000       974.369629      -1.57079160    
  0.390157014       1.86461902      -0.00000000       974.369629      -1.57079160    
   9.06440020E-02   1.90284204      -0.00000000       980.882141      -1.57079077    
  0.150970995       1.89900804      -0.00000000       980.882141      -1.57079077    
   0.00000000       0.00000000       0.00000000       980.882141      -1.57079077    
   3.02249994E-02   1.90476000      -0.00000000       980.882141      -1.57079077    
 -0.150970995       1.89900804      -0.00000000       982.430847      -1.57079101    
  -9.06440020E-02   1.90284204      -0.00000000       982.430847      -1.57079101    
   0.00000000       0.00000000       0.00000000       982.430847      -1.57079101    
 -0.211146995       1.89326203      -0.00000000       982.430847      -1.57079101    
   0.00000000       0.00000000       0.00000000       982.240417      -1.57079065    
  -9.06440020E-02   1.90284204      -0.00000000       982.240417      -1.57079065    
  -3.02249994E-02   1.90476000      -0.00000000       982.240417      -1.57079065    
   3.02249994E-02   1.90476000      -0.00000000       982.240417      -1.57079065    
 -0.271109998       1.88560998      -0.00000000       981.491333      -1.57079148    
 -0.211146995       1.89326203      -0.00000000       981.491333      -1.57079148    
   0.00000000       0.00000000       0.00000000       981.491333      -1.57079148    
 -0.330799997       1.87605906      -0.00000000       981.491333      -1.57079148    
 -0.507632971       1.83611906      -0.00000000       979.562317      -1.57079363    
 -0.449120998       1.85130095      -0.00000000       979.562317      -1.57079363    
   0.00000000       0.00000000       0.00000000       979.562317      -1.57079363    
 -0.565632999       1.81908906      -0.00000000       979.562317      -1.57079363    
   0.00000000       0.00000000       0.00000000       980.364380      -1.57079244    
 -0.449120998       1.85130095      -0.00000000       980.364380      -1.57079244    
 -0.390157014       1.86461902      -0.00000000       980.364380      -1.57079244    
 -0.330799997       1.87605906      -0.00000000       980.364380      -1.57079244    
 -0.623063982       1.80022705      -0.00000000       979.904907      -1.57079506    
 -0.565632999       1.81908906      -0.00000000       979.904907      -1.57079506    
   0.00000000       0.00000000       0.00000000       979.904907      -1.57079506    
 -0.679867983       1.77955198      -0.00000000       979.904907      -1.57079506    
 -0.845947027       1.70686805      -0.00000000       987.814331      -1.57079935    
 -0.791365981       1.73284900      -0.00000000       987.814331      -1.57079935    
   0.00000000       0.00000000       0.00000000       987.814331      -1.57079935    
 -0.899676025       1.67916906      -0.00000000       987.814331      -1.57079935    
   0.00000000       0.00000000       0.00000000       982.628967      -1.57079697    
 -0.791365981       1.73284900      -0.00000000       982.628967      -1.57079697    
 -0.735987008       1.75708497      -0.00000000       982.628967      -1.57079697    
 -0.679867983       1.77955198      -0.00000000       982.628967      -1.57079697    
 -0.952499986       1.64977801      -0.00000000       995.378967      -1.57080197    
 -0.899676025       1.67916906      -0.00000000       995.378967      -1.57080197    
   0.00000000       0.00000000       0.00000000       995.378967      -1.57080197    
  -1.00436401       1.61872697      -0.00000000       995.378967      -1.57080197    
  -1.15368605       1.51592600      -0.00000000       1012.77240      -1.57080841    
  -1.10500801       1.55176699      -0.00000000       1012.77240      -1.57080841    
   0.00000000       0.00000000       0.00000000       1012.77240      -1.57080841    
  -1.20120299       1.47855902      -0.00000000       1012.77240      -1.57080841    
   0.00000000       0.00000000       0.00000000       1004.21600      -1.57080507    
  -1.10500801       1.55176699      -0.00000000       1004.21600      -1.57080507    
  -1.05521798       1.58604598      -0.00000000       1004.21600      -1.57080507    
  -1.00436401       1.61872697      -0.00000000       1004.21600      -1.57080507    
  -1.24750996       1.43970299      -0.00000000       1016.11517      -1.57081175    
  -1.20120299       1.47855902      -0.00000000       1016.11517      -1.57081175    
   0.00000000       0.00000000       0.00000000       1016.11517      -1.57081175    
  -1.29255998       1.39939702      -0.00000000       1016.11517      -1.57081175    
  -1.41972899       1.27019501      -0.00000000       928.870483      -1.57081735    
  -1.37871301       1.31459999      -0.00000000       928.870483      -1.57081735    
   0.00000000       0.00000000       0.00000000       928.870483      -1.57081735    
  -1.45931494       1.22450995      -0.00000000       928.870483      -1.57081735    
   0.00000000       0.00000000       0.00000000       996.049927      -1.57081497    
  -1.37871301       1.31459999      -0.00000000       996.049927      -1.57081497    
  -1.33631003       1.35768199      -0.00000000       996.049927      -1.57081497    
  -1.29255998       1.39939702      -0.00000000       996.049927      -1.57081497    
  -1.49743104       1.17759299      -0.00000000       838.375000      -1.57081997    
  -1.45931494       1.22450995      -0.00000000       838.375000      -1.57081997    
   0.00000000       0.00000000       0.00000000       838.375000      -1.57081997    
  -1.53403997       1.12949002      -0.00000000       838.375000      -1.57081997    
  -1.63445795      0.978555024      -0.00000000       652.525085      -1.57082868    
  -1.60258806       1.02992105      -0.00000000       652.525085      -1.57082868    
   0.00000000       0.00000000       0.00000000       652.525085      -1.57082868    
  -1.66468298      0.926204979      -0.00000000       652.525085      -1.57082868    
   0.00000000       0.00000000       0.00000000       744.519958      -1.57082367    
  -1.60258806       1.02992105      -0.00000000       744.519958      -1.57082367    
  -1.56910396       1.08024895      -0.00000000       744.519958      -1.57082367    
  -1.53403997       1.12949002      -0.00000000       744.519958      -1.57082367    
  -1.69323206      0.872922003      -0.00000000       563.828735      -1.57083571    
  -1.66468298      0.926204979      -0.00000000       563.828735      -1.57083571    
   0.00000000       0.00000000       0.00000000       563.828735      -1.57083571    
  -1.72007501      0.818759024      -0.00000000       563.828735      -1.57083571    
  -1.79011405      0.651548028      -0.00000000       399.198608      -1.57085943    
  -1.76854098      0.708016992      -0.00000000       399.198608      -1.57085943    
   0.00000000       0.00000000       0.00000000       399.198608      -1.57085943    
  -1.80988598      0.594424009      -0.00000000       399.198608      -1.57085943    
   0.00000000       0.00000000       0.00000000       479.549011      -1.57084560    
  -1.76854098      0.708016992      -0.00000000       479.549011      -1.57084560    
  -1.74518704      0.763773024      -0.00000000       479.549011      -1.57084560    
  -1.72007501      0.818759024      -0.00000000       479.549011      -1.57084560    
  -1.82783401      0.536701024      -0.00000000       322.047485      -1.57088053    
  -1.80988598      0.594424009      -0.00000000       322.047485      -1.57088053    
   0.00000000       0.00000000       0.00000000       322.047485      -1.57088053    
  -1.84394205      0.478437006      -0.00000000       322.047485      -1.57088053    
  -1.88107097      0.300992996      -0.00000000       174.558517      -1.57097566    
  -1.87057400      0.360523999      -0.00000000       174.558517      -1.57097566    
   0.00000000       0.00000000       0.00000000       174.558517      -1.57097566    
  -1.88967395      0.241159007      -0.00000000       174.558517      -1.57097566    
   0.00000000       0.00000000       0.00000000       247.315170      -1.57091415    
  -1.87057400      0.360523999      -0.00000000       247.315170      -1.57091415    
  -1.85819399      0.419692010      -0.00000000       247.315170      -1.57091415    
  -1.84394205      0.478437006      -0.00000000       247.315170      -1.57091415    
  -1.89637399      0.181081995      -0.00000000       103.102867      -1.57112122    
  -1.88967395      0.241159007      -0.00000000       103.102867      -1.57112122    
   0.00000000       0.00000000       0.00000000       103.102867      -1.57112122    
  -1.90116501      0.120823003      -0.00000000       103.102867      -1.57112122    
  -1.90404105      -6.04420006E-02  -0.00000000       39.1036072       1.57177019    
  -1.90499997       0.00000000      -0.00000000       39.1036072       1.57177019    
   0.00000000       0.00000000       0.00000000       39.1036072       1.57177019    
  -1.90116501     -0.120823003      -0.00000000       39.1036072       1.57177019    
   0.00000000       0.00000000       0.00000000       31.9296703      -1.57191944    
  -1.90499997       0.00000000      -0.00000000       31.9296703      -1.57191944    
  -1.90404105       6.04420006E-02  -0.00000000       31.9296703      -1.57191944    
  -1.90116501      0.120823003      -0.00000000       31.9296703      -1.57191944    
  -1.89637399     -0.181081995      -0.00000000       110.192261       1.57116222    
  -1.90116501     -0.120823003      -0.00000000       110.192261       1.57116222    
   0.00000000       0.00000000       0.00000000       110.192261       1.57116222    
  -1.88967395     -0.241159007      -0.00000000       110.192261       1.57116222    
  -1.85819399     -0.419692010      -0.00000000       255.437225       1.57097113    
  -1.87057400     -0.360523999      -0.00000000       255.437225       1.57097113    
   0.00000000       0.00000000       0.00000000       255.437225       1.57097113    
  -1.84394205     -0.478437006      -0.00000000       255.437225       1.57097113    
   0.00000000       0.00000000       0.00000000       181.947632       1.57102990    
  -1.87057400     -0.360523999      -0.00000000       181.947632       1.57102990    
  -1.88107097     -0.300992996      -0.00000000       181.947632       1.57102990    
  -1.88967395     -0.241159007      -0.00000000       181.947632       1.57102990    
  -1.82783401     -0.536701024      -0.00000000       330.835510       1.57093751    
  -1.84394205     -0.478437006      -0.00000000       330.835510       1.57093751    
   0.00000000       0.00000000       0.00000000       330.835510       1.57093751    
  -1.80988598     -0.594424009      -0.00000000       330.835510       1.57093751    
  -1.74518704     -0.763773024      -0.00000000       489.886536       1.57089853    
  -1.76854098     -0.708016992      -0.00000000       489.886536       1.57089853    
   0.00000000       0.00000000       0.00000000       489.886536       1.57089853    
  -1.72007501     -0.818759024      -0.00000000       489.886536       1.57089853    
   0.00000000       0.00000000       0.00000000       408.627594       1.57091463    
  -1.76854098     -0.708016992      -0.00000000       408.627594       1.57091463    
  -1.79011405     -0.651548028      -0.00000000       408.627594       1.57091463    
  -1.80988598     -0.594424009      -0.00000000       408.627594       1.57091463    
  -1.69323206     -0.872922003      -0.00000000       574.801514       1.57088578    
  -1.72007501     -0.818759024      -0.00000000       574.801514       1.57088578    
   0.00000000       0.00000000       0.00000000       574.801514       1.57088578    
  -1.66468298     -0.926204979      -0.00000000       574.801514       1.57088578    
  -1.56910396      -1.08024895      -0.00000000       754.148987       1.57086670    
  -1.60258806      -1.02992105      -0.00000000       754.148987       1.57086670    
   0.00000000       0.00000000       0.00000000       754.148987       1.57086670    
  -1.53403997      -1.12949002      -0.00000000       754.148987       1.57086670    
   0.00000000       0.00000000       0.00000000       663.305969       1.57087529    
  -1.60258806      -1.02992105      -0.00000000       663.305969       1.57087529    
  -1.63445795     -0.978555024      -0.00000000       663.305969       1.57087529    
  -1.66468298     -0.926204979      -0.00000000       663.305969       1.57087529    
  -1.49743104      -1.17759299      -0.00000000       845.688843       1.57085979    
  -1.53403997      -1.12949002      -0.00000000       845.688843       1.57085979    
   0.00000000       0.00000000       0.00000000       845.688843       1.57085979    
  -1.45931494      -1.22450995      -0.00000000       845.688843       1.57085979    
  -1.33631003      -1.35768199      -0.00000000       996.478088       1.57085168    
  -1.37871301      -1.31459999      -0.00000000       996.478088       1.57085168    
   0.00000000       0.00000000       0.00000000       996.478088       1.57085168    
  -1.29255998      -1.39939702      -0.00000000       996.478088       1.57085168    
   0.00000000       0.00000000       0.00000000       932.696533       1.57085431    
  -1.37871301      -1.31459999      -0.00000000       932.696533       1.57085431    
  -1.41972899      -1.27019501      -0.00000000       932.696533       1.57085431    
  -1.45931494      -1.22450995      -0.00000000       932.696533       1.57085431    
  -1.24750996      -1.43970299      -0.00000000       1013.50195       1.57085371    
  -1.29255998      -1.39939702      -0.00000000       1013.50195       1.57085371    
   0.00000000       0.00000000       0.00000000       1013.50195       1.57085371    
  -1.20120299      -1.47855902      -0.00000000       1013.50195       1.57085371    
  -1.05521798      -1.58604598      -0.00000000       996.818481       1.57086170    
  -1.10500801      -1.55176699      -0.00000000       996.818481       1.57086170    
   0.00000000       0.00000000       0.00000000       996.818481       1.57086170    
  -1.00436401      -1.61872697      -0.00000000       996.818481       1.57086170    
   0.00000000       0.00000000       0.00000000       1007.15033       1.57085752    
  -1.10500801      -1.55176699      -0.00000000       1007.15033       1.57085752    
  -1.15368605      -1.51592600      -0.00000000       1007.15033       1.57085752    
  -1.20120299      -1.47855902      -0.00000000       1007.15033       1.57085752    
 -0.952499986      -1.64977801      -0.00000000       987.453857       1.57086551    
  -1.00436401      -1.61872697      -0.00000000       987.453857       1.57086551    
   0.00000000       0.00000000       0.00000000       987.453857       1.57086551    
 -0.899676025      -1.67916906      -0.00000000       987.453857       1.57086551    
 -0.735987008      -1.75708497      -0.00000000       976.579712       1.57087135    
 -0.791365981      -1.73284900      -0.00000000       976.579712       1.57087135    
   0.00000000       0.00000000       0.00000000       976.579712       1.57087135    
 -0.679867983      -1.77955198      -0.00000000       976.579712       1.57087135    
   0.00000000       0.00000000       0.00000000       980.386719       1.57086873    
 -0.791365981      -1.73284900      -0.00000000       980.386719       1.57086873    
 -0.845947027      -1.70686805      -0.00000000       980.386719       1.57086873    
 -0.899676025      -1.67916906      -0.00000000       980.386719       1.57086873    
 -0.623063982      -1.80022705      -0.00000000       975.641907       1.57087338    
 -0.679867983      -1.77955198      -0.00000000       975.641907       1.57087338    
   0.00000000       0.00000000       0.00000000       975.641907       1.57087338    
 -0.565632999      -1.81908906      -0.00000000       975.641907       1.57087338    
 -0.390157014      -1.86461902      -0.00000000       978.701294       1.57087588    
 -0.449120998      -1.85130095      -0.00000000       978.701294       1.57087588    
   0.00000000       0.00000000       0.00000000       978.701294       1.57087588    
 -0.330799997      -1.87605906      -0.00000000       978.701294       1.57087588    
   0.00000000       0.00000000       0.00000000       976.765442       1.57087481    
 -0.449120998      -1.85130095      -0.00000000       976.765442       1.57087481    
 -0.507632971      -1.83611906      -0.00000000       976.765442       1.57087481    
 -0.565632999      -1.81908906      -0.00000000       976.765442       1.57087481    
 -0.271109998      -1.88560998      -0.00000000       980.838928       1.57087648    
 -0.330799997      -1.87605906      -0.00000000       980.838928       1.57087648    
   0.00000000       0.00000000       0.00000000       980.838928       1.57087648    
 -0.211146995      -1.89326203      -0.00000000       980.838928       1.57087648    
  -3.02249994E-02  -1.90476000      -0.00000000       982.648132       1.57087696    
  -9.06440020E-02  -1.90284204      -0.00000000       982.648132       1.57087696    
   0.00000000       0.00000000       0.00000000       982.648132       1.57087696    
   3.02249994E-02  -1.90476000      -0.00000000       982.648132       1.57087696    
   0.00000000       0.00000000       0.00000000       982.342712       1.57087684    
  -9.06440020E-02  -1.90284204      -0.00000000       982.342712       1.57087684    
 -0.150970995      -1.89900804      -0.00000000       982.342712       1.57087684    
 -0.211146995      -1.89326203      -0.00000000       982.342712       1.57087684    
   9.06440020E-02  -1.90284204      -0.00000000       981.684875       1.57087719    
   3.02249994E-02  -1.90476000      -0.00000000       981.684875       1.57087719    
   0.00000000       0.00000000       0.00000000       981.684875       1.57087719    
  0.150970995      -1.89900804      -0.00000000       981.684875       1.57087719    
  0.330799997      -1.87605906      -0.00000000       976.222046       1.57087660    
  0.271109998      -1.88560998      -0.00000000       976.222046       1.57087660    
   0.00000000       0.00000000       0.00000000       976.222046       1.57087660    
  0.390157014      -1.86461902      -0.00000000       976.222046       1.57087660    
   0.00000000       0.00000000       0.00000000       979.522522       1.57087696    
  0.271109998      -1.88560998      -0.00000000       979.522522       1.57087696    
  0.211146995      -1.89326203      -0.00000000       979.522522       1.57087696    
  0.150970995      -1.89900804      -0.00000000       979.522522       1.57087696    
  0.449120998      -1.85130095      -0.00000000       972.732056       1.57087600    
  0.390157014      -1.86461902      -0.00000000       972.732056       1.57087600    
   0.00000000       0.00000000       0.00000000       972.732056       1.57087600    
  0.507632971      -1.83611906      -0.00000000       972.732056       1.57087600    
  0.679867983      -1.77955198      -0.00000000       967.377502       1.57087350    
  0.623063982      -1.80022705      -0.00000000       967.377502       1.57087350    
   0.00000000       0.00000000       0.00000000       967.377502       1.57087350    
  0.735987008      -1.75708497      -0.00000000       967.377502       1.57087350    
   0.00000000       0.00000000       0.00000000       969.511902       1.57087505    
  0.623063982      -1.80022705      -0.00000000       969.511902       1.57087505    
  0.565632999      -1.81908906      -0.00000000       969.511902       1.57087505    
  0.507632971      -1.83611906      -0.00000000       969.511902       1.57087505    
  0.791365981      -1.73284900      -0.00000000       967.531067       1.57087147    
  0.735987008      -1.75708497      -0.00000000       967.531067       1.57087147    
   0.00000000       0.00000000       0.00000000       967.531067       1.57087147    
  0.845947027      -1.70686805      -0.00000000       967.531067       1.57087147    
   1.00436401      -1.61872697      -0.00000000       974.832886       1.57086551    
  0.952499986      -1.64977801      -0.00000000       974.832886       1.57086551    
   0.00000000       0.00000000       0.00000000       974.832886       1.57086551    
   1.05521798      -1.58604598      -0.00000000       974.832886       1.57086551    
   0.00000000       0.00000000       0.00000000       970.039917       1.57086873    
  0.952499986      -1.64977801      -0.00000000       970.039917       1.57086873    
  0.899676025      -1.67916906      -0.00000000       970.039917       1.57086873    
  0.845947027      -1.70686805      -0.00000000       970.039917       1.57086873    
   1.10500801      -1.55176699      -0.00000000       980.865112       1.57086205    
   1.05521798      -1.58604598      -0.00000000       980.865112       1.57086205    
   0.00000000       0.00000000       0.00000000       980.865112       1.57086205    
   1.15368605      -1.51592600      -0.00000000       980.865112       1.57086205    
   1.29255998      -1.39939702      -0.00000000       987.257446       1.57085454    
   1.24750996      -1.43970299      -0.00000000       987.257446       1.57085454    
   0.00000000       0.00000000       0.00000000       987.257446       1.57085454    
   1.33631003      -1.35768199      -0.00000000       987.257446       1.57085454    
   0.00000000       0.00000000       0.00000000       986.630554       1.57085824    
   1.24750996      -1.43970299      -0.00000000       986.630554       1.57085824    
   1.20120299      -1.47855902      -0.00000000       986.630554       1.57085824    