 VARIABLES="X" "Y" "Z" "abs(p) (Pa)" "angle(p) (rad)"
ZONE N=    802,E =     800, F=FEPOINT, ET=QUADRILATERAL
   1.90499997       0.00000000      -0.00000000       147.308670       1.57196665    
   1.90404105      -6.04420006E-02  -0.00000000       147.308670       1.57196665    
   0.00000000       0.00000000       0.00000000       147.308670       1.57196665    
   1.90404105       6.04420006E-02  -0.00000000       147.308670       1.57196665    
   1.88967395      0.241159007      -0.00000000       147.049438       1.57196808    
   1.89637399      0.181081995      -0.00000000       147.049438       1.57196808    
   0.00000000       0.00000000       0.00000000       147.049438       1.57196808    
   1.88107097      0.300992996      -0.00000000       147.049438       1.57196808    
   0.00000000       0.00000000       0.00000000       147.246933       1.57196701    
   1.89637399      0.181081995      -0.00000000       147.246933       1.57196701    
   1.90116501      0.120823003      -0.00000000       147.246933       1.57196701    
   1.90404105       6.04420006E-02  -0.00000000       147.246933       1.57196701    
   1.87057400      0.360523999      -0.00000000       146.828125       1.57196903    
   1.88107097      0.300992996      -0.00000000       146.828125       1.57196903    
   0.00000000       0.00000000       0.00000000       146.828125       1.57196903    
   1.85819399      0.419692010      -0.00000000       146.828125       1.57196903    
   1.80988598      0.594424009      -0.00000000       146.596909       1.57196820    
   1.82783401      0.536701024      -0.00000000       146.596909       1.57196820    
   0.00000000       0.00000000       0.00000000       146.596909       1.57196820    
   1.79011405      0.651548028      -0.00000000       146.596909       1.57196820    
   0.00000000       0.00000000       0.00000000       146.636719       1.57196951    
   1.82783401      0.536701024      -0.00000000       146.636719       1.57196951    
   1.84394205      0.478437006      -0.00000000       146.636719       1.57196951    
   1.85819399      0.419692010      -0.00000000       146.636719       1.57196951    
   1.76854098      0.708016992      -0.00000000       146.901566       1.57196379    
   1.79011405      0.651548028      -0.00000000       146.901566       1.57196379    
   0.00000000       0.00000000       0.00000000       146.901566       1.57196379    
   1.74518704      0.763773024      -0.00000000       146.901566       1.57196379    
   1.66468298      0.926204979      -0.00000000       148.624939       1.57194507    
   1.69323206      0.872922003      -0.00000000       148.624939       1.57194507    
   0.00000000       0.00000000       0.00000000       148.624939       1.57194507    
   1.63445795      0.978555024      -0.00000000       148.624939       1.57194507    
   0.00000000       0.00000000       0.00000000       147.583908       1.57195604    
   1.69323206      0.872922003      -0.00000000       147.583908       1.57195604    
   1.72007501      0.818759024      -0.00000000       147.583908       1.57195604    
   1.74518704      0.763773024      -0.00000000       147.583908       1.57195604    
   1.60258806       1.02992105      -0.00000000       149.853043       1.57193232    
   1.63445795      0.978555024      -0.00000000       149.853043       1.57193232    
   0.00000000       0.00000000       0.00000000       149.853043       1.57193232    
   1.56910396       1.08024895      -0.00000000       149.853043       1.57193232    
   1.45931494       1.22450995      -0.00000000       151.505966       1.57191265    
   1.49743104       1.17759299      -0.00000000       151.505966       1.57191265    
   0.00000000       0.00000000       0.00000000       151.505966       1.57191265    
   1.41972899       1.27019501      -0.00000000       151.505966       1.57191265    
   0.00000000       0.00000000       0.00000000       151.054367       1.57191968    
   1.49743104       1.17759299      -0.00000000       151.054367       1.57191968    
   1.53403997       1.12949002      -0.00000000       151.054367       1.57191968    
   1.56910396       1.08024895      -0.00000000       151.054367       1.57191968    
   1.37871301       1.31459999      -0.00000000       148.578140       1.57193160    
   1.41972899       1.27019501      -0.00000000       148.578140       1.57193160    
   0.00000000       0.00000000       0.00000000       148.578140       1.57193160    
   1.33631003       1.35768199      -0.00000000       148.578140       1.57193160    
   1.20120299       1.47855902      -0.00000000       125.679512       1.57213759    
   1.24750996       1.43970299      -0.00000000       125.679512       1.57213759    
   0.00000000       0.00000000       0.00000000       125.679512       1.57213759    
   1.15368605       1.51592600      -0.00000000       125.679512       1.57213759    
   0.00000000       0.00000000       0.00000000       138.827240       1.57201052    
   1.24750996       1.43970299      -0.00000000       138.827240       1.57201052    
   1.29255998       1.39939702      -0.00000000       138.827240       1.57201052    
   1.33631003       1.35768199      -0.00000000       138.827240       1.57201052    
   1.10500801       1.55176699      -0.00000000       112.042297       1.57230079    
   1.15368605       1.51592600      -0.00000000       112.042297       1.57230079    
   0.00000000       0.00000000       0.00000000       112.042297       1.57230079    
   1.05521798       1.58604598      -0.00000000       112.042297       1.57230079    
  0.899676025       1.67916906      -0.00000000       85.7725906       1.57275951    
  0.952499986       1.64977801      -0.00000000       85.7725906       1.57275951    
   0.00000000       0.00000000       0.00000000       85.7725906       1.57275951    
  0.845947027       1.70686805      -0.00000000       85.7725906       1.57275951    
   0.00000000       0.00000000       0.00000000       98.6716690       1.57250416    
  0.952499986       1.64977801      -0.00000000       98.6716690       1.57250416    
   1.00436401       1.61872697      -0.00000000       98.6716690       1.57250416    
   1.05521798       1.58604598      -0.00000000       98.6716690       1.57250416    
  0.791365981       1.73284900      -0.00000000       73.5085831       1.57308495    
  0.845947027       1.70686805      -0.00000000       73.5085831       1.57308495    
   0.00000000       0.00000000       0.00000000       73.5085831       1.57308495    
  0.735987008       1.75708497      -0.00000000       73.5085831       1.57308495    
  0.565632999       1.81908906      -0.00000000       50.5645905       1.57411385    
  0.623063982       1.80022705      -0.00000000       50.5645905       1.57411385    
   0.00000000       0.00000000       0.00000000       50.5645905       1.57411385    
  0.507632971       1.83611906      -0.00000000       50.5645905       1.57411385    
   0.00000000       0.00000000       0.00000000       61.8075790       1.57351458    
  0.623063982       1.80022705      -0.00000000       61.8075790       1.57351458    
  0.679867983       1.77955198      -0.00000000       61.8075790       1.57351458    
  0.735987008       1.75708497      -0.00000000       61.8075790       1.57351458    
  0.449120998       1.85130095      -0.00000000       39.6664047       1.57501829    
  0.507632971       1.83611906      -0.00000000       39.6664047       1.57501829    
   0.00000000       0.00000000       0.00000000       39.6664047       1.57501829    
  0.390157014       1.86461902      -0.00000000       39.6664047       1.57501829    
  0.211146995       1.89326203      -0.00000000       18.6169796       1.57975805    
  0.271109998       1.88560998      -0.00000000       18.6169796       1.57975805    
   0.00000000       0.00000000       0.00000000       18.6169796       1.57975805    
  0.150970995       1.89900804      -0.00000000       18.6169796       1.57975805    
   0.00000000       0.00000000       0.00000000       29.0461521       1.57655132    
  0.271109998       1.88560998      -0.00000000       29.0461521       1.57655132    
  0.330799997       1.87605906      -0.00000000       29.0461521       1.57655132    
  0.390157014       1.86461902      -0.00000000       29.0461521       1.57655132    
   9.06440020E-02   1.90284204      -0.00000000       8.23777199       1.59101033    
  0.150970995       1.89900804      -0.00000000       8.23777199       1.59101033    
   0.00000000       0.00000000       0.00000000       8.23777199       1.59101033    
   3.02249994E-02   1.90476000      -0.00000000       8.23777199       1.59101033    
 -0.150970995       1.89900804      -0.00000000       12.4648848      -1.58410108    
  -9.06440020E-02   1.90284204      -0.00000000       12.4648848      -1.58410108    
   0.00000000       0.00000000       0.00000000       12.4648848      -1.58410108    
 -0.211146995       1.89326203      -0.00000000       12.4648848      -1.58410108    
   0.00000000       0.00000000       0.00000000       2.12124324      -1.64921355    
  -9.06440020E-02   1.90284204      -0.00000000       2.12124324      -1.64921355    
  -3.02249994E-02   1.90476000      -0.00000000       2.12124324      -1.64921355    
   3.02249994E-02   1.90476000      -0.00000000       2.12124324      -1.64921355    
 -0.271109998       1.88560998      -0.00000000       22.9020309      -1.57802308    
 -0.211146995       1.89326203      -0.00000000       22.9020309      -1.57802308    
   0.00000000       0.00000000       0.00000000       22.9020309      -1.57802308    
 -0.330799997       1.87605906      -0.00000000       22.9020309      -1.57802308    
 -0.507632971       1.83611906      -0.00000000       44.5226517      -1.57449973    
 -0.449120998       1.85130095      -0.00000000       44.5226517      -1.57449973    
   0.00000000       0.00000000       0.00000000       44.5226517      -1.57449973    
 -0.565632999       1.81908906      -0.00000000       44.5226517      -1.57449973    
   0.00000000       0.00000000       0.00000000       33.5787430      -1.57571566    
 -0.449120998       1.85130095      -0.00000000       33.5787430      -1.57571566    
 -0.390157014       1.86461902      -0.00000000       33.5787430      -1.57571566    
 -0.330799997       1.87605906      -0.00000000       33.5787430      -1.57571566    
 -0.623063982       1.80022705      -0.00000000       55.8022194      -1.57374573    
 -0.565632999       1.81908906      -0.00000000       55.8022194      -1.57374573    
   0.00000000       0.00000000       0.00000000       55.8022194      -1.57374573    
 -0.679867983       1.77955198      -0.00000000       55.8022194      -1.57374573    
 -0.845947027       1.70686805      -0.00000000       79.8477478      -1.57285142    
 -0.791365981       1.73284900      -0.00000000       79.8477478      -1.57285142    
   0.00000000       0.00000000       0.00000000       79.8477478      -1.57285142    
 -0.899676025       1.67916906      -0.00000000       79.8477478      -1.57285142    
   0.00000000       0.00000000       0.00000000       67.5683670      -1.57322836    
 -0.791365981       1.73284900      -0.00000000       67.5683670      -1.57322836    
 -0.735987008       1.75708497      -0.00000000       67.5683670      -1.57322836    
 -0.679867983       1.77955198      -0.00000000       67.5683670      -1.57322836    
 -0.952499986       1.64977801      -0.00000000       92.6300812      -1.57256579    
 -0.899676025       1.67916906      -0.00000000       92.6300812      -1.57256579    
   0.00000000       0.00000000       0.00000000       92.6300812      -1.57256579    
  -1.00436401       1.61872697      -0.00000000       92.6300812      -1.57256579    
  -1.15368605       1.51592600      -0.00000000       118.944862      -1.57217193    
  -1.10500801       1.55176699      -0.00000000       118.944862      -1.57217193    
   0.00000000       0.00000000       0.00000000       118.944862      -1.57217193    
  -1.20120299       1.47855902      -0.00000000       118.944862      -1.57217193    
   0.00000000       0.00000000       0.00000000       105.739594      -1.57234490    
  -1.10500801       1.55176699      -0.00000000       105.739594      -1.57234490    
  -1.05521798       1.58604598      -0.00000000       105.739594      -1.57234490    
  -1.00436401       1.61872697      -0.00000000       105.739594      -1.57234490    
  -1.24750996       1.43970299      -0.00000000       131.515884      -1.57203948    
  -1.20120299       1.47855902      -0.00000000       131.515884      -1.57203948    
   0.00000000       0.00000000       0.00000000       131.515884      -1.57203948    
  -1.29255998       1.39939702      -0.00000000       131.515884      -1.57203948    
  -1.41972899       1.27019501      -0.00000000       143.589386      -1.57193065    
  -1.37871301       1.31459999      -0.00000000       143.589386      -1.57193065    
   0.00000000       0.00000000       0.00000000       143.589386      -1.57193065    
  -1.45931494       1.22450995      -0.00000000       143.589386      -1.57193065    
   0.00000000       0.00000000       0.00000000       140.839874      -1.57195580    
  -1.37871301       1.31459999      -0.00000000       140.839874      -1.57195580    
  -1.33631003       1.35768199      -0.00000000       140.839874      -1.57195580    
  -1.29255998       1.39939702      -0.00000000       140.839874      -1.57195580    
  -1.49743104       1.17759299      -0.00000000       143.027985      -1.57193184    
  -1.45931494       1.22450995      -0.00000000       143.027985      -1.57193184    
   0.00000000       0.00000000       0.00000000       143.027985      -1.57193184    
  -1.53403997       1.12949002      -0.00000000       143.027985      -1.57193184    
  -1.63445795      0.978555024      -0.00000000       140.891739      -1.57194281    
  -1.60258806       1.02992105      -0.00000000       140.891739      -1.57194281    
   0.00000000       0.00000000       0.00000000       140.891739      -1.57194281    
  -1.66468298      0.926204979      -0.00000000       140.891739      -1.57194281    
   0.00000000       0.00000000       0.00000000       141.896927      -1.57193768    
  -1.60258806       1.02992105      -0.00000000       141.896927      -1.57193768    
  -1.56910396       1.08024895      -0.00000000       141.896927      -1.57193768    
  -1.53403997       1.12949002      -0.00000000       141.896927      -1.57193768    
  -1.69323206      0.872922003      -0.00000000       140.197083      -1.57194579    
  -1.66468298      0.926204979      -0.00000000       140.197083      -1.57194579    
   0.00000000       0.00000000       0.00000000       140.197083      -1.57194579    
  -1.72007501      0.818759024      -0.00000000       140.197083      -1.57194579    
  -1.79011405      0.651548028      -0.00000000       140.081619      -1.57194269    
  -1.76854098      0.708016992      -0.00000000       140.081619      -1.57194269    
   0.00000000       0.00000000       0.00000000       140.081619      -1.57194269    
  -1.80988598      0.594424009      -0.00000000       140.081619      -1.57194269    
   0.00000000       0.00000000       0.00000000       139.945724      -1.57194567    
  -1.76854098      0.708016992      -0.00000000       139.945724      -1.57194567    
  -1.74518704      0.763773024      -0.00000000       139.945724      -1.57194567    
  -1.72007501      0.818759024      -0.00000000       139.945724      -1.57194567    
  -1.82783401      0.536701024      -0.00000000       140.490524      -1.57193792    
  -1.80988598      0.594424009      -0.00000000       140.490524      -1.57193792    
   0.00000000       0.00000000       0.00000000       140.490524      -1.57193792    
  -1.84394205      0.478437006      -0.00000000       140.490524      -1.57193792    
  -1.88107097      0.300992996      -0.00000000       141.511810      -1.57192767    
  -1.87057400      0.360523999      -0.00000000       141.511810      -1.57192767    
   0.00000000       0.00000000       0.00000000       141.511810      -1.57192767    
  -1.88967395      0.241159007      -0.00000000       141.511810      -1.57192767    
   0.00000000       0.00000000       0.00000000       140.995422      -1.57193255    
  -1.87057400      0.360523999      -0.00000000       140.995422      -1.57193255    
  -1.85819399      0.419692010      -0.00000000       140.995422      -1.57193255    
  -1.84394205      0.478437006      -0.00000000       140.995422      -1.57193255    
  -1.89637399      0.181081995      -0.00000000       141.919556      -1.57192397    
  -1.88967395      0.241159007      -0.00000000       141.919556      -1.57192397    
   0.00000000       0.00000000       0.00000000       141.919556      -1.57192397    
  -1.90116501      0.120823003      -0.00000000       141.919556      -1.57192397    
  -1.90404105      -6.04420006E-02  -0.00000000       142.171112      -1.57192159    
  -1.90499997       0.00000000      -0.00000000       142.171112      -1.57192159    
   0.00000000       0.00000000       0.00000000       142.171112      -1.57192159    
  -1.90116501     -0.120823003      -0.00000000       142.171112      -1.57192159    
   0.00000000       0.00000000       0.00000000       142.142944      -1.57192183    
  -1.90499997       0.00000000      -0.00000000       142.142944      -1.57192183    
  -1.90404105       6.04420006E-02  -0.00000000       142.142944      -1.57192183    
  -1.90116501      0.120823003      -0.00000000       142.142944      -1.57192183    
  -1.89637399     -0.181081995      -0.00000000       142.017639      -1.57192314    
  -1.90116501     -0.120823003      -0.00000000       142.017639      -1.57192314    
   0.00000000       0.00000000       0.00000000       142.017639      -1.57192314    
  -1.88967395     -0.241159007      -0.00000000       142.017639      -1.57192314    
  -1.85819399     -0.419692010      -0.00000000       141.316315      -1.57193017    
  -1.87057400     -0.360523999      -0.00000000       141.316315      -1.57193017    
   0.00000000       0.00000000       0.00000000       141.316315      -1.57193017    
  -1.84394205     -0.478437006      -0.00000000       141.316315      -1.57193017    
   0.00000000       0.00000000       0.00000000       141.689285      -1.57192624    
  -1.87057400     -0.360523999      -0.00000000       141.689285      -1.57192624    
  -1.88107097     -0.300992996      -0.00000000       141.689285      -1.57192624    
  -1.88967395     -0.241159007      -0.00000000       141.689285      -1.57192624    
  -1.82783401     -0.536701024      -0.00000000       140.971603      -1.57193410    
  -1.84394205     -0.478437006      -0.00000000       140.971603      -1.57193410    
   0.00000000       0.00000000       0.00000000       140.971603      -1.57193410    
  -1.80988598     -0.594424009      -0.00000000       140.971603      -1.57193410    
  -1.74518704     -0.763773024      -0.00000000       140.889130      -1.57193816    
  -1.76854098     -0.708016992      -0.00000000       140.889130      -1.57193816    
   0.00000000       0.00000000       0.00000000       140.889130      -1.57193816    
  -1.72007501     -0.818759024      -0.00000000       140.889130      -1.57193816    
   0.00000000       0.00000000       0.00000000       140.771423      -1.57193720    
  -1.76854098     -0.708016992      -0.00000000       140.771423      -1.57193720    
  -1.79011405     -0.651548028      -0.00000000       140.771423      -1.57193720    
  -1.80988598     -0.594424009      -0.00000000       140.771423      -1.57193720    
  -1.69323206     -0.872922003      -0.00000000       141.336105      -1.57193685    
  -1.72007501     -0.818759024      -0.00000000       141.336105      -1.57193685    
   0.00000000       0.00000000       0.00000000       141.336105      -1.57193685    
  -1.66468298     -0.926204979      -0.00000000       141.336105      -1.57193685    
  -1.56910396      -1.08024895      -0.00000000       143.037994      -1.57192874    
  -1.60258806      -1.02992105      -0.00000000       143.037994      -1.57192874    
   0.00000000       0.00000000       0.00000000       143.037994      -1.57192874    
  -1.53403997      -1.12949002      -0.00000000       143.037994      -1.57192874    
   0.00000000       0.00000000       0.00000000       142.103897      -1.57193327    
  -1.60258806      -1.02992105      -0.00000000       142.103897      -1.57193327    
  -1.63445795     -0.978555024      -0.00000000       142.103897      -1.57193327    
  -1.66468298     -0.926204979      -0.00000000       142.103897      -1.57193327    
  -1.49743104      -1.17759299      -0.00000000       143.923492      -1.57192492    
  -1.53403997      -1.12949002      -0.00000000       143.923492      -1.57192492    
   0.00000000       0.00000000       0.00000000       143.923492      -1.57192492    
  -1.45931494      -1.22450995      -0.00000000       143.923492      -1.57192492    
  -1.33631003      -1.35768199      -0.00000000       140.892532      -1.57195532    
  -1.37871301      -1.31459999      -0.00000000       140.892532      -1.57195532    
   0.00000000       0.00000000       0.00000000       140.892532      -1.57195532    
  -1.29255998      -1.39939702      -0.00000000       140.892532      -1.57195532    
   0.00000000       0.00000000       0.00000000       144.065628      -1.57192719    
  -1.37871301      -1.31459999      -0.00000000       144.065628      -1.57192719    
  -1.41972899      -1.27019501      -0.00000000       144.065628      -1.57192719    
  -1.45931494      -1.22450995      -0.00000000       144.065628      -1.57192719    
  -1.24750996      -1.43970299      -0.00000000       131.090286      -1.57204342    
  -1.29255998      -1.39939702      -0.00000000       131.090286      -1.57204342    
   0.00000000       0.00000000       0.00000000       131.090286      -1.57204342    
  -1.20120299      -1.47855902      -0.00000000       131.090286      -1.57204342    
  -1.05521798      -1.58604598      -0.00000000       104.494354      -1.57236314    
  -1.10500801      -1.55176699      -0.00000000       104.494354      -1.57236314    
   0.00000000       0.00000000       0.00000000       104.494354      -1.57236314    
  -1.00436401      -1.61872697      -0.00000000       104.494354      -1.57236314    
   0.00000000       0.00000000       0.00000000       118.028015      -1.57218254    
  -1.10500801      -1.55176699      -0.00000000       118.028015      -1.57218254    
  -1.15368605      -1.51592600      -0.00000000       118.028015      -1.57218254    
  -1.20120299      -1.47855902      -0.00000000       118.028015      -1.57218254    
 -0.952499986      -1.64977801      -0.00000000       91.2191086      -1.57259297    
  -1.00436401      -1.61872697      -0.00000000       91.2191086      -1.57259297    
   0.00000000       0.00000000       0.00000000       91.2191086      -1.57259297    
 -0.899676025      -1.67916906      -0.00000000       91.2191086      -1.57259297    
 -0.735987008      -1.75708497      -0.00000000       66.2098846      -1.57327807    
 -0.791365981      -1.73284900      -0.00000000       66.2098846      -1.57327807    
   0.00000000       0.00000000       0.00000000       66.2098846      -1.57327807    
 -0.679867983      -1.77955198      -0.00000000       66.2098846      -1.57327807    
   0.00000000       0.00000000       0.00000000       78.4048462      -1.57288909    
 -0.791365981      -1.73284900      -0.00000000       78.4048462      -1.57288909    
 -0.845947027      -1.70686805      -0.00000000       78.4048462      -1.57288909    
 -0.899676025      -1.67916906      -0.00000000       78.4048462      -1.57288909    
 -0.623063982      -1.80022705      -0.00000000       54.5651474      -1.57381248    
 -0.679867983      -1.77955198      -0.00000000       54.5651474      -1.57381248    
   0.00000000       0.00000000       0.00000000       54.5651474      -1.57381248    
 -0.565632999      -1.81908906      -0.00000000       54.5651474      -1.57381248    
 -0.390157014      -1.86461902      -0.00000000       32.5162735      -1.57587624    
 -0.449120998      -1.85130095      -0.00000000       32.5162735      -1.57587624    
   0.00000000       0.00000000       0.00000000       32.5162735      -1.57587624    
 -0.330799997      -1.87605906      -0.00000000       32.5162735      -1.57587624    
   0.00000000       0.00000000       0.00000000       43.3709106      -1.57459760    
 -0.449120998      -1.85130095      -0.00000000       43.3709106      -1.57459760    
 -0.507632971      -1.83611906      -0.00000000       43.3709106      -1.57459760    
 -0.565632999      -1.81908906      -0.00000000       43.3709106      -1.57459760    
 -0.271109998      -1.88560998      -0.00000000       21.9382534      -1.57834029    
 -0.330799997      -1.87605906      -0.00000000       21.9382534      -1.57834029    
   0.00000000       0.00000000       0.00000000       21.9382534      -1.57834029    
 -0.211146995      -1.89326203      -0.00000000       21.9382534      -1.57834029    
  -3.02249994E-02  -1.90476000      -0.00000000       1.18365145      -1.71164513    
  -9.06440020E-02  -1.90284204      -0.00000000       1.18365145      -1.71164513    
   0.00000000       0.00000000       0.00000000       1.18365145      -1.71164513    
   3.02249994E-02  -1.90476000      -0.00000000       1.18365145      -1.71164513    
   0.00000000       0.00000000       0.00000000       11.5396624      -1.58516777    
  -9.06440020E-02  -1.90284204      -0.00000000       11.5396624      -1.58516777    
 -0.150970995      -1.89900804      -0.00000000       11.5396624      -1.58516777    
 -0.211146995      -1.89326203      -0.00000000       11.5396624      -1.58516777    
   9.06440020E-02  -1.90284204      -0.00000000       9.18512440       1.58892643    
   3.02249994E-02  -1.90476000      -0.00000000       9.18512440       1.58892643    
   0.00000000       0.00000000       0.00000000       9.18512440       1.58892643    
  0.150970995      -1.89900804      -0.00000000       9.18512440       1.58892643    
  0.330799997      -1.87605906      -0.00000000       30.0398979       1.57636094    
  0.271109998      -1.88560998      -0.00000000       30.0398979       1.57636094    
   0.00000000       0.00000000       0.00000000       30.0398979       1.57636094    
  0.390157014      -1.86461902      -0.00000000       30.0398979       1.57636094    
   0.00000000       0.00000000       0.00000000       19.5606289       1.57932556    
  0.271109998      -1.88560998      -0.00000000       19.5606289       1.57932556    
  0.211146995      -1.89326203      -0.00000000       19.5606289       1.57932556    
  0.150970995      -1.89900804      -0.00000000       19.5606289       1.57932556    
  0.449120998      -1.85130095      -0.00000000       40.7658501       1.57490444    
  0.390157014      -1.86461902      -0.00000000       40.7658501       1.57490444    
   0.00000000       0.00000000       0.00000000       40.7658501       1.57490444    
  0.507632971      -1.83611906      -0.00000000       40.7658501       1.57490444    
  0.679867983      -1.77955198      -0.00000000       63.1053429       1.57345843    
  0.623063982      -1.80022705      -0.00000000       63.1053429       1.57345843    
   0.00000000       0.00000000       0.00000000       63.1053429       1.57345843    
  0.735987008      -1.75708497      -0.00000000       63.1053429       1.57345843    
   0.00000000       0.00000000       0.00000000       51.7640839       1.57403696    
  0.623063982      -1.80022705      -0.00000000       51.7640839       1.57403696    
  0.565632999      -1.81908906      -0.00000000       51.7640839       1.57403696    
  0.507632971      -1.83611906      -0.00000000       51.7640839       1.57403696    
  0.791365981      -1.73284900      -0.00000000       74.9437866       1.57304060    
  0.735987008      -1.75708497      -0.00000000       74.9437866       1.57304060    
   0.00000000       0.00000000       0.00000000       74.9437866       1.57304060    
  0.845947027      -1.70686805      -0.00000000       74.9437866       1.57304060    
   1.00436401      -1.61872697      -0.00000000       100.182838       1.57247818    
  0.952499986      -1.64977801      -0.00000000       100.182838       1.57247818    
   0.00000000       0.00000000       0.00000000       100.182838       1.57247818    
   1.05521798      -1.58604598      -0.00000000       100.182838       1.57247818    
   0.00000000       0.00000000       0.00000000       87.3047333       1.57272494    
  0.952499986      -1.64977801      -0.00000000       87.3047333       1.57272494    
  0.899676025      -1.67916906      -0.00000000       87.3047333       1.57272494    
  0.845947027      -1.70686805      -0.00000000       87.3047333       1.57272494    
   1.10500801      -1.55176699      -0.00000000       113.393303       1.57228279    
   1.05521798      -1.58604598      -0.00000000       113.393303       1.57228279    
   0.00000000       0.00000000       0.00000000       113.393303       1.57228279    
   1.15368605      -1.51592600      -0.00000000       113.393303       1.57228279    
   1.29255998      -1.39939702      -0.00000000       139.355621       1.57200599    
   1.24750996      -1.43970299      -0.00000000       139.355621       1.57200599    
   0.00000000       0.00000000       0.00000000       139.355621       1.57200599    
   1.33631003      -1.35768199      -0.00000000       139.355621       1.57200599    
   0.00000000       0.00000000       0.00000000       126.703239       1.57212663    
   1.24750996      -1.43970299      -0.00000000       126.703239       1.57212663    
   1.20120299      -1.47855902      -0.00000000       126.703239       1.57212663    