 VARIABLES="X" "Y" "Z" "abs(p) (Pa)" "angle(p) (rad)"
ZONE N=    802,E =     800, F=FEPOINT, ET=QUADRILATERAL
   1.90499997       0.00000000      -0.00000000       651.635376     -0.813912451    
   1.90404105      -6.04420006E-02  -0.00000000       651.635376     -0.813912451    
   0.00000000       0.00000000       0.00000000       651.635376     -0.813912451    
   1.90404105       6.04420006E-02  -0.00000000       651.635376     -0.813912451    
   1.88967395      0.241159007      -0.00000000       650.623535     -0.813649952    
   1.89637399      0.181081995      -0.00000000       650.623535     -0.813649952    
   0.00000000       0.00000000       0.00000000       650.623535     -0.813649952    
   1.88107097      0.300992996      -0.00000000       650.623535     -0.813649952    
   0.00000000       0.00000000       0.00000000       651.427673     -0.813859284    
   1.89637399      0.181081995      -0.00000000       651.427673     -0.813859284    
   1.90116501      0.120823003      -0.00000000       651.427673     -0.813859284    
   1.90404105       6.04420006E-02  -0.00000000       651.427673     -0.813859284    
   1.87057400      0.360523999      -0.00000000       649.617126     -0.813501239    
   1.88107097      0.300992996      -0.00000000       649.617126     -0.813501239    
   0.00000000       0.00000000       0.00000000       649.617126     -0.813501239    
   1.85819399      0.419692010      -0.00000000       649.617126     -0.813501239    
   1.80988598      0.594424009      -0.00000000       651.378235     -0.815934479    
   1.82783401      0.536701024      -0.00000000       651.378235     -0.815934479    
   0.00000000       0.00000000       0.00000000       651.378235     -0.815934479    
   1.79011405      0.651548028      -0.00000000       651.378235     -0.815934479    
   0.00000000       0.00000000       0.00000000       649.549072     -0.814089894    
   1.82783401      0.536701024      -0.00000000       649.549072     -0.814089894    
   1.84394205      0.478437006      -0.00000000       649.549072     -0.814089894    
   1.85819399      0.419692010      -0.00000000       649.549072     -0.814089894    
   1.76854098      0.708016992      -0.00000000       655.564697     -0.819209397    
   1.79011405      0.651548028      -0.00000000       655.564697     -0.819209397    
   0.00000000       0.00000000       0.00000000       655.564697     -0.819209397    
   1.74518704      0.763773024      -0.00000000       655.564697     -0.819209397    
   1.66468298      0.926204979      -0.00000000       673.813599     -0.830894768    
   1.69323206      0.872922003      -0.00000000       673.813599     -0.830894768    
   0.00000000       0.00000000       0.00000000       673.813599     -0.830894768    
   1.63445795      0.978555024      -0.00000000       673.813599     -0.830894768    
   0.00000000       0.00000000       0.00000000       663.000671     -0.824277401    
   1.69323206      0.872922003      -0.00000000       663.000671     -0.824277401    
   1.72007501      0.818759024      -0.00000000       663.000671     -0.824277401    
   1.74518704      0.763773024      -0.00000000       663.000671     -0.824277401    
   1.60258806       1.02992105      -0.00000000       687.330994     -0.838436902    
   1.63445795      0.978555024      -0.00000000       687.330994     -0.838436902    
   0.00000000       0.00000000       0.00000000       687.330994     -0.838436902    
   1.56910396       1.08024895      -0.00000000       687.330994     -0.838436902    
   1.45931494       1.22450995      -0.00000000       711.953918     -0.850104570    
   1.49743104       1.17759299      -0.00000000       711.953918     -0.850104570    
   0.00000000       0.00000000       0.00000000       711.953918     -0.850104570    
   1.41972899       1.27019501      -0.00000000       711.953918     -0.850104570    
   0.00000000       0.00000000       0.00000000       701.351379     -0.845535755    
   1.49743104       1.17759299      -0.00000000       701.351379     -0.845535755    
   1.53403997       1.12949002      -0.00000000       701.351379     -0.845535755    
   1.56910396       1.08024895      -0.00000000       701.351379     -0.845535755    
   1.37871301       1.31459999      -0.00000000       704.507263     -0.844627619    
   1.41972899       1.27019501      -0.00000000       704.507263     -0.844627619    
   0.00000000       0.00000000       0.00000000       704.507263     -0.844627619    
   1.33631003       1.35768199      -0.00000000       704.507263     -0.844627619    
   1.20120299       1.47855902      -0.00000000       601.078552     -0.772635460    
   1.24750996       1.43970299      -0.00000000       601.078552     -0.772635460    
   0.00000000       0.00000000       0.00000000       601.078552     -0.772635460    
   1.15368605       1.51592600      -0.00000000       601.078552     -0.772635460    
   0.00000000       0.00000000       0.00000000       661.359741     -0.817579508    
   1.24750996       1.43970299      -0.00000000       661.359741     -0.817579508    
   1.29255998       1.39939702      -0.00000000       661.359741     -0.817579508    
   1.33631003       1.35768199      -0.00000000       661.359741     -0.817579508    
   1.10500801       1.55176699      -0.00000000       540.281921     -0.714279532    
   1.15368605       1.51592600      -0.00000000       540.281921     -0.714279532    
   0.00000000       0.00000000       0.00000000       540.281921     -0.714279532    
   1.05521798       1.58604598      -0.00000000       540.281921     -0.714279532    
  0.899676025       1.67916906      -0.00000000       434.794800     -0.554780424    
  0.952499986       1.64977801      -0.00000000       434.794800     -0.554780424    
   0.00000000       0.00000000       0.00000000       434.794800     -0.554780424    
  0.845947027       1.70686805      -0.00000000       434.794800     -0.554780424    
   0.00000000       0.00000000       0.00000000       483.844330     -0.641746223    
  0.952499986       1.64977801      -0.00000000       483.844330     -0.641746223    
   1.00436401       1.61872697      -0.00000000       483.844330     -0.641746223    
   1.05521798       1.58604598      -0.00000000       483.844330     -0.641746223    
  0.791365981       1.73284900      -0.00000000       393.910980     -0.452297151    
  0.845947027       1.70686805      -0.00000000       393.910980     -0.452297151    
   0.00000000       0.00000000       0.00000000       393.910980     -0.452297151    
  0.735987008       1.75708497      -0.00000000       393.910980     -0.452297151    
  0.565632999       1.81908906      -0.00000000       338.566437     -0.201451644    
  0.623063982       1.80022705      -0.00000000       338.566437     -0.201451644    
   0.00000000       0.00000000       0.00000000       338.566437     -0.201451644    
  0.507632971       1.83611906      -0.00000000       338.566437     -0.201451644    
   0.00000000       0.00000000       0.00000000       361.759064     -0.334162593    
  0.623063982       1.80022705      -0.00000000       361.759064     -0.334162593    
  0.679867983       1.77955198      -0.00000000       361.759064     -0.334162593    
  0.735987008       1.75708497      -0.00000000       361.759064     -0.334162593    
  0.449120998       1.85130095      -0.00000000       324.490295      -5.75259887E-02
  0.507632971       1.83611906      -0.00000000       324.490295      -5.75259887E-02
   0.00000000       0.00000000       0.00000000       324.490295      -5.75259887E-02
  0.390157014       1.86461902      -0.00000000       324.490295      -5.75259887E-02
  0.211146995       1.89326203      -0.00000000       323.387482      0.241827592    
  0.271109998       1.88560998      -0.00000000       323.387482      0.241827592    
   0.00000000       0.00000000       0.00000000       323.387482      0.241827592    
  0.150970995       1.89900804      -0.00000000       323.387482      0.241827592    
   0.00000000       0.00000000       0.00000000       319.521454       9.27506387E-02
  0.271109998       1.88560998      -0.00000000       319.521454       9.27506387E-02
  0.330799997       1.87605906      -0.00000000       319.521454       9.27506387E-02
  0.390157014       1.86461902      -0.00000000       319.521454       9.27506387E-02
   9.06440020E-02   1.90284204      -0.00000000       335.474274      0.381049007    
  0.150970995       1.89900804      -0.00000000       335.474274      0.381049007    
   0.00000000       0.00000000       0.00000000       335.474274      0.381049007    
   3.02249994E-02   1.90476000      -0.00000000       335.474274      0.381049007    
 -0.150970995       1.89900804      -0.00000000       380.159546      0.614695311    
  -9.06440020E-02   1.90284204      -0.00000000       380.159546      0.614695311    
   0.00000000       0.00000000       0.00000000       380.159546      0.614695311    
 -0.211146995       1.89326203      -0.00000000       380.159546      0.614695311    
   0.00000000       0.00000000       0.00000000       354.682251      0.505921006    
  -9.06440020E-02   1.90284204      -0.00000000       354.682251      0.505921006    
  -3.02249994E-02   1.90476000      -0.00000000       354.682251      0.505921006    
   3.02249994E-02   1.90476000      -0.00000000       354.682251      0.505921006    
 -0.271109998       1.88560998      -0.00000000       410.985687      0.706762016    
 -0.211146995       1.89326203      -0.00000000       410.985687      0.706762016    
   0.00000000       0.00000000       0.00000000       410.985687      0.706762016    
 -0.330799997       1.87605906      -0.00000000       410.985687      0.706762016    
 -0.507632971       1.83611906      -0.00000000       485.897430      0.845474303    
 -0.449120998       1.85130095      -0.00000000       485.897430      0.845474303    
   0.00000000       0.00000000       0.00000000       485.897430      0.845474303    
 -0.565632999       1.81908906      -0.00000000       485.897430      0.845474303    
   0.00000000       0.00000000       0.00000000       446.245605      0.782859623    
 -0.449120998       1.85130095      -0.00000000       446.245605      0.782859623    
 -0.390157014       1.86461902      -0.00000000       446.245605      0.782859623    
 -0.330799997       1.87605906      -0.00000000       446.245605      0.782859623    
 -0.623063982       1.80022705      -0.00000000       530.200500      0.896837771    
 -0.565632999       1.81908906      -0.00000000       530.200500      0.896837771    
   0.00000000       0.00000000       0.00000000       530.200500      0.896837771    
 -0.679867983       1.77955198      -0.00000000       530.200500      0.896837771    
 -0.845947027       1.70686805      -0.00000000       632.952271      0.972328842    
 -0.791365981       1.73284900      -0.00000000       632.952271      0.972328842    
   0.00000000       0.00000000       0.00000000       632.952271      0.972328842    
 -0.899676025       1.67916906      -0.00000000       632.952271      0.972328842    
   0.00000000       0.00000000       0.00000000       579.075623      0.938570142    
 -0.791365981       1.73284900      -0.00000000       579.075623      0.938570142    
 -0.735987008       1.75708497      -0.00000000       579.075623      0.938570142    
 -0.679867983       1.77955198      -0.00000000       579.075623      0.938570142    
 -0.952499986       1.64977801      -0.00000000       691.677795      0.999373853    
 -0.899676025       1.67916906      -0.00000000       691.677795      0.999373853    
   0.00000000       0.00000000       0.00000000       691.677795      0.999373853    
  -1.00436401       1.61872697      -0.00000000       691.677795      0.999373853    
  -1.15368605       1.51592600      -0.00000000       817.828308       1.03711450    
  -1.10500801       1.55176699      -0.00000000       817.828308       1.03711450    
   0.00000000       0.00000000       0.00000000       817.828308       1.03711450    
  -1.20120299       1.47855902      -0.00000000       817.828308       1.03711450    
   0.00000000       0.00000000       0.00000000       754.161133       1.02064407    
  -1.10500801       1.55176699      -0.00000000       754.161133       1.02064407    
  -1.05521798       1.58604598      -0.00000000       754.161133       1.02064407    
  -1.00436401       1.61872697      -0.00000000       754.161133       1.02064407    
  -1.24750996       1.43970299      -0.00000000       878.517090       1.04962885    
  -1.20120299       1.47855902      -0.00000000       878.517090       1.04962885    
   0.00000000       0.00000000       0.00000000       878.517090       1.04962885    
  -1.29255998       1.39939702      -0.00000000       878.517090       1.04962885    
  -1.41972899       1.27019501      -0.00000000       927.896240       1.06503856    
  -1.37871301       1.31459999      -0.00000000       927.896240       1.06503856    
   0.00000000       0.00000000       0.00000000       927.896240       1.06503856    
  -1.45931494       1.22450995      -0.00000000       927.896240       1.06503856    
   0.00000000       0.00000000       0.00000000       921.250122       1.05870223    
  -1.37871301       1.31459999      -0.00000000       921.250122       1.05870223    
  -1.33631003       1.35768199      -0.00000000       921.250122       1.05870223    
  -1.29255998       1.39939702      -0.00000000       921.250122       1.05870223    
  -1.49743104       1.17759299      -0.00000000       915.911926       1.06985927    
  -1.45931494       1.22450995      -0.00000000       915.911926       1.06985927    
   0.00000000       0.00000000       0.00000000       915.911926       1.06985927    
  -1.53403997       1.12949002      -0.00000000       915.911926       1.06985927    
  -1.63445795      0.978555024      -0.00000000       887.287292       1.07693934    
  -1.60258806       1.02992105      -0.00000000       887.287292       1.07693934    
   0.00000000       0.00000000       0.00000000       887.287292       1.07693934    
  -1.66468298      0.926204979      -0.00000000       887.287292       1.07693934    
   0.00000000       0.00000000       0.00000000       900.966370       1.07375681    
  -1.60258806       1.02992105      -0.00000000       900.966370       1.07375681    
  -1.56910396       1.08024895      -0.00000000       900.966370       1.07375681    
  -1.53403997       1.12949002      -0.00000000       900.966370       1.07375681    
  -1.69323206      0.872922003      -0.00000000       877.219543       1.07955837    
  -1.66468298      0.926204979      -0.00000000       877.219543       1.07955837    
   0.00000000       0.00000000       0.00000000       877.219543       1.07955837    
  -1.72007501      0.818759024      -0.00000000       877.219543       1.07955837    
  -1.79011405      0.651548028      -0.00000000       867.363037       1.08349144    
  -1.76854098      0.708016992      -0.00000000       867.363037       1.08349144    
   0.00000000       0.00000000       0.00000000       867.363037       1.08349144    
  -1.80988598      0.594424009      -0.00000000       867.363037       1.08349144    
   0.00000000       0.00000000       0.00000000       870.652039       1.08171785    
  -1.76854098      0.708016992      -0.00000000       870.652039       1.08171785    
  -1.74518704      0.763773024      -0.00000000       870.652039       1.08171785    
  -1.72007501      0.818759024      -0.00000000       870.652039       1.08171785    
  -1.82783401      0.536701024      -0.00000000       866.606750       1.08494294    
  -1.80988598      0.594424009      -0.00000000       866.606750       1.08494294    
   0.00000000       0.00000000       0.00000000       866.606750       1.08494294    
  -1.84394205      0.478437006      -0.00000000       866.606750       1.08494294    
  -1.88107097      0.300992996      -0.00000000       869.106812       1.08695543    
  -1.87057400      0.360523999      -0.00000000       869.106812       1.08695543    
   0.00000000       0.00000000       0.00000000       869.106812       1.08695543    
  -1.88967395      0.241159007      -0.00000000       869.106812       1.08695543    
   0.00000000       0.00000000       0.00000000       867.503784       1.08609200    
  -1.87057400      0.360523999      -0.00000000       867.503784       1.08609200    
  -1.85819399      0.419692010      -0.00000000       867.503784       1.08609200    
  -1.84394205      0.478437006      -0.00000000       867.503784       1.08609200    
  -1.89637399      0.181081995      -0.00000000       870.478516       1.08751583    
  -1.88967395      0.241159007      -0.00000000       870.478516       1.08751583    
   0.00000000       0.00000000       0.00000000       870.478516       1.08751583    
  -1.90116501      0.120823003      -0.00000000       870.478516       1.08751583    
  -1.90404105      -6.04420006E-02  -0.00000000       871.516907       1.08776617    
  -1.90499997       0.00000000      -0.00000000       871.516907       1.08776617    
   0.00000000       0.00000000       0.00000000       871.516907       1.08776617    
  -1.90116501     -0.120823003      -0.00000000       871.516907       1.08776617    
   0.00000000       0.00000000       0.00000000       871.456055       1.08778727    
  -1.90499997       0.00000000      -0.00000000       871.456055       1.08778727    
  -1.90404105       6.04420006E-02  -0.00000000       871.456055       1.08778727    
  -1.90116501      0.120823003      -0.00000000       871.456055       1.08778727    
  -1.89637399     -0.181081995      -0.00000000       870.824646       1.08746266    
  -1.90116501     -0.120823003      -0.00000000       870.824646       1.08746266    
   0.00000000       0.00000000       0.00000000       870.824646       1.08746266    
  -1.88967395     -0.241159007      -0.00000000       870.824646       1.08746266    
  -1.85819399     -0.419692010      -0.00000000       868.816772       1.08599627    
  -1.87057400     -0.360523999      -0.00000000       868.816772       1.08599627    
   0.00000000       0.00000000       0.00000000       868.816772       1.08599627    
  -1.84394205     -0.478437006      -0.00000000       868.816772       1.08599627    
   0.00000000       0.00000000       0.00000000       869.768616       1.08686984    
  -1.87057400     -0.360523999      -0.00000000       869.768616       1.08686984    
  -1.88107097     -0.300992996      -0.00000000       869.768616       1.08686984    
  -1.88967395     -0.241159007      -0.00000000       869.768616       1.08686984    
  -1.82783401     -0.536701024      -0.00000000       868.849792       1.08485734    
  -1.84394205     -0.478437006      -0.00000000       868.849792       1.08485734    
   0.00000000       0.00000000       0.00000000       868.849792       1.08485734    
  -1.80988598     -0.594424009      -0.00000000       868.849792       1.08485734    
  -1.74518704     -0.763773024      -0.00000000       875.104309       1.08168578    
  -1.76854098     -0.708016992      -0.00000000       875.104309       1.08168578    
   0.00000000       0.00000000       0.00000000       875.104309       1.08168578    
  -1.72007501     -0.818759024      -0.00000000       875.104309       1.08168578    
   0.00000000       0.00000000       0.00000000       870.779419       1.08343744    
  -1.76854098     -0.708016992      -0.00000000       870.779419       1.08343744    
  -1.79011405     -0.651548028      -0.00000000       870.779419       1.08343744    
  -1.80988598     -0.594424009      -0.00000000       870.779419       1.08343744    
  -1.69323206     -0.872922003      -0.00000000       882.648743       1.07954907    
  -1.72007501     -0.818759024      -0.00000000       882.648743       1.07954907    
   0.00000000       0.00000000       0.00000000       882.648743       1.07954907    
  -1.66468298     -0.926204979      -0.00000000       882.648743       1.07954907    
  -1.56910396      -1.08024895      -0.00000000       907.001038       1.07367957    
  -1.60258806      -1.02992105      -0.00000000       907.001038       1.07367957    
   0.00000000       0.00000000       0.00000000       907.001038       1.07367957    
  -1.53403997      -1.12949002      -0.00000000       907.001038       1.07367957    
   0.00000000       0.00000000       0.00000000       893.515869       1.07691598    
  -1.60258806      -1.02992105      -0.00000000       893.515869       1.07691598    
  -1.63445795     -0.978555024      -0.00000000       893.515869       1.07691598    
  -1.66468298     -0.926204979      -0.00000000       893.515869       1.07691598    
  -1.49743104      -1.17759299      -0.00000000       920.685730       1.06968153    
  -1.53403997      -1.12949002      -0.00000000       920.685730       1.06968153    
   0.00000000       0.00000000       0.00000000       920.685730       1.06968153    
  -1.45931494      -1.22450995      -0.00000000       920.685730       1.06968153    
  -1.33631003      -1.35768199      -0.00000000       921.974182       1.05810988    
  -1.37871301      -1.31459999      -0.00000000       921.974182       1.05810988    
   0.00000000       0.00000000       0.00000000       921.974182       1.05810988    
  -1.29255998      -1.39939702      -0.00000000       921.974182       1.05810988    
   0.00000000       0.00000000       0.00000000       930.603943       1.06468952    
  -1.37871301      -1.31459999      -0.00000000       930.603943       1.06468952    
  -1.41972899      -1.27019501      -0.00000000       930.603943       1.06468952    
  -1.45931494      -1.22450995      -0.00000000       930.603943       1.06468952    
  -1.24750996      -1.43970299      -0.00000000       877.086548       1.04866707    
  -1.29255998      -1.39939702      -0.00000000       877.086548       1.04866707    
   0.00000000       0.00000000       0.00000000       877.086548       1.04866707    
  -1.20120299      -1.47855902      -0.00000000       877.086548       1.04866707    
  -1.05521798      -1.58604598      -0.00000000       748.544617       1.01856780    
  -1.10500801      -1.55176699      -0.00000000       748.544617       1.01856780    
   0.00000000       0.00000000       0.00000000       748.544617       1.01856780    
  -1.00436401      -1.61872697      -0.00000000       748.544617       1.01856780    
   0.00000000       0.00000000       0.00000000       813.945984       1.03564358    
  -1.10500801      -1.55176699      -0.00000000       813.945984       1.03564358    
  -1.15368605      -1.51592600      -0.00000000       813.945984       1.03564358    
  -1.20120299      -1.47855902      -0.00000000       813.945984       1.03564358    
 -0.952499986      -1.64977801      -0.00000000       685.302551      0.996558368    
  -1.00436401      -1.61872697      -0.00000000       685.302551      0.996558368    
   0.00000000       0.00000000       0.00000000       685.302551      0.996558368    
 -0.899676025      -1.67916906      -0.00000000       685.302551      0.996558368    
 -0.735987008      -1.75708497      -0.00000000       573.563232      0.934386969    
 -0.791365981      -1.73284900      -0.00000000       573.563232      0.934386969    
   0.00000000       0.00000000       0.00000000       573.563232      0.934386969    
 -0.679867983      -1.77955198      -0.00000000       573.563232      0.934386969    
   0.00000000       0.00000000       0.00000000       626.896912      0.968842804    
 -0.791365981      -1.73284900      -0.00000000       626.896912      0.968842804    
 -0.845947027      -1.70686805      -0.00000000       626.896912      0.968842804    
 -0.899676025      -1.67916906      -0.00000000       626.896912      0.968842804    
 -0.623063982      -1.80022705      -0.00000000       525.332764      0.891863763    
 -0.679867983      -1.77955198      -0.00000000       525.332764      0.891863763    
   0.00000000       0.00000000       0.00000000       525.332764      0.891863763    
 -0.565632999      -1.81908906      -0.00000000       525.332764      0.891863763    
 -0.390157014      -1.86461902      -0.00000000       442.846985      0.776087642    
 -0.449120998      -1.85130095      -0.00000000       442.846985      0.776087642    
   0.00000000       0.00000000       0.00000000       442.846985      0.776087642    
 -0.330799997      -1.87605906      -0.00000000       442.846985      0.776087642    
   0.00000000       0.00000000       0.00000000       481.855042      0.839706421    
 -0.449120998      -1.85130095      -0.00000000       481.855042      0.839706421    
 -0.507632971      -1.83611906      -0.00000000       481.855042      0.839706421    
 -0.565632999      -1.81908906      -0.00000000       481.855042      0.839706421    
 -0.271109998      -1.88560998      -0.00000000       408.000946      0.698538899    
 -0.330799997      -1.87605906      -0.00000000       408.000946      0.698538899    
   0.00000000       0.00000000       0.00000000       408.000946      0.698538899    
 -0.211146995      -1.89326203      -0.00000000       408.000946      0.698538899    
  -3.02249994E-02  -1.90476000      -0.00000000       352.679779      0.495386124    
  -9.06440020E-02  -1.90284204      -0.00000000       352.679779      0.495386124    
   0.00000000       0.00000000       0.00000000       352.679779      0.495386124    
   3.02249994E-02  -1.90476000      -0.00000000       352.679779      0.495386124    
   0.00000000       0.00000000       0.00000000       377.611359      0.605217993    
  -9.06440020E-02  -1.90284204      -0.00000000       377.611359      0.605217993    
 -0.150970995      -1.89900804      -0.00000000       377.611359      0.605217993    
 -0.211146995      -1.89326203      -0.00000000       377.611359      0.605217993    
   9.06440020E-02  -1.90284204      -0.00000000       333.944672      0.369205475    
   3.02249994E-02  -1.90476000      -0.00000000       333.944672      0.369205475    
   0.00000000       0.00000000       0.00000000       333.944672      0.369205475    
  0.150970995      -1.89900804      -0.00000000       333.944672      0.369205475    
  0.330799997      -1.87605906      -0.00000000       319.282654       7.83368573E-02
  0.271109998      -1.88560998      -0.00000000       319.282654       7.83368573E-02
   0.00000000       0.00000000       0.00000000       319.282654       7.83368573E-02
  0.390157014      -1.86461902      -0.00000000       319.282654       7.83368573E-02
   0.00000000       0.00000000       0.00000000       322.432251      0.228303373    
  0.271109998      -1.88560998      -0.00000000       322.432251      0.228303373    
  0.211146995      -1.89326203      -0.00000000       322.432251      0.228303373    
  0.150970995      -1.89900804      -0.00000000       322.432251      0.228303373    
  0.449120998      -1.85130095      -0.00000000       325.148315      -7.19020292E-02
  0.390157014      -1.86461902      -0.00000000       325.148315      -7.19020292E-02
   0.00000000       0.00000000       0.00000000       325.148315      -7.19020292E-02
  0.507632971      -1.83611906      -0.00000000       325.148315      -7.19020292E-02
  0.679867983      -1.77955198      -0.00000000       364.653595     -0.348226905    
  0.623063982      -1.80022705      -0.00000000       364.653595     -0.348226905    
   0.00000000       0.00000000       0.00000000       364.653595     -0.348226905    
  0.735987008      -1.75708497      -0.00000000       364.653595     -0.348226905    
   0.00000000       0.00000000       0.00000000       340.262695     -0.215834424    
  0.623063982      -1.80022705      -0.00000000       340.262695     -0.215834424    
  0.565632999      -1.81908906      -0.00000000       340.262695     -0.215834424    
  0.507632971      -1.83611906      -0.00000000       340.262695     -0.215834424    
  0.791365981      -1.73284900      -0.00000000       397.887970     -0.465082794    
  0.735987008      -1.75708497      -0.00000000       397.887970     -0.465082794    
   0.00000000       0.00000000       0.00000000       397.887970     -0.465082794    
  0.845947027      -1.70686805      -0.00000000       397.887970     -0.465082794    
   1.00436401      -1.61872697      -0.00000000       489.501709     -0.651007235    
  0.952499986      -1.64977801      -0.00000000       489.501709     -0.651007235    
   0.00000000       0.00000000       0.00000000       489.501709     -0.651007235    
   1.05521798      -1.58604598      -0.00000000       489.501709     -0.651007235    
   0.00000000       0.00000000       0.00000000       439.760071     -0.565975547    
  0.952499986      -1.64977801      -0.00000000       439.760071     -0.565975547    
  0.899676025      -1.67916906      -0.00000000       439.760071     -0.565975547    
  0.845947027      -1.70686805      -0.00000000       439.760071     -0.565975547    
   1.10500801      -1.55176699      -0.00000000       545.544006     -0.720925391    
   1.05521798      -1.58604598      -0.00000000       545.544006     -0.720925391    
   0.00000000       0.00000000       0.00000000       545.544006     -0.720925391    
   1.15368605      -1.51592600      -0.00000000       545.544006     -0.720925391    
   1.29255998      -1.39939702      -0.00000000       662.920227     -0.819646657    
   1.24750996      -1.43970299      -0.00000000       662.920227     -0.819646657    
   0.00000000       0.00000000       0.00000000       662.920227     -0.819646657    
   1.33631003      -1.35768199      -0.00000000       662.920227     -0.819646657    
   0.00000000       0.00000000       0.00000000       604.893372     -0.776798368    
   1.24750996      -1.43970299      -0.00000000       604.893372     -0.776798368    
   1.20120299      -1.47855902      -0.00000000       604.893372     -0.776798368    