 VARIABLES="X" "Y" "Z" "abs(p) (Pa)" "angle(p) (rad)"
ZONE N=    802,E =     800, F=FEPOINT, ET=QUADRILATERAL
   1.90499997       0.00000000      -0.00000000       1.11298656       1.52644312    
   1.90404105      -6.04420006E-02  -0.00000000       1.11298656       1.52644312    
   0.00000000       0.00000000       0.00000000       1.11298656       1.52644312    
   1.90404105       6.04420006E-02  -0.00000000       1.11298656       1.52644312    
   1.88967395      0.241159007      -0.00000000       62.5671654       1.57824254    
   1.89637399      0.181081995      -0.00000000       62.5671654       1.57824254    
   0.00000000       0.00000000       0.00000000       62.5671654       1.57824254    
   1.88107097      0.300992996      -0.00000000       62.5671654       1.57824254    
   0.00000000       0.00000000       0.00000000       31.6618195       1.57749474    
   1.89637399      0.181081995      -0.00000000       31.6618195       1.57749474    
   1.90116501      0.120823003      -0.00000000       31.6618195       1.57749474    
   1.90404105       6.04420006E-02  -0.00000000       31.6618195       1.57749474    
   1.87057400      0.360523999      -0.00000000       93.8819504       1.57835197    
   1.88107097      0.300992996      -0.00000000       93.8819504       1.57835197    
   0.00000000       0.00000000       0.00000000       93.8819504       1.57835197    
   1.85819399      0.419692010      -0.00000000       93.8819504       1.57835197    
   1.80988598      0.594424009      -0.00000000       159.167358       1.57789671    
   1.82783401      0.536701024      -0.00000000       159.167358       1.57789671    
   0.00000000       0.00000000       0.00000000       159.167358       1.57789671    
   1.79011405      0.651548028      -0.00000000       159.167358       1.57789671    
   0.00000000       0.00000000       0.00000000       125.898796       1.57821858    
   1.82783401      0.536701024      -0.00000000       125.898796       1.57821858    
   1.84394205      0.478437006      -0.00000000       125.898796       1.57821858    
   1.85819399      0.419692010      -0.00000000       125.898796       1.57821858    
   1.76854098      0.708016992      -0.00000000       193.841385       1.57744145    
   1.79011405      0.651548028      -0.00000000       193.841385       1.57744145    
   0.00000000       0.00000000       0.00000000       193.841385       1.57744145    
   1.74518704      0.763773024      -0.00000000       193.841385       1.57744145    
   1.66468298      0.926204979      -0.00000000       268.522858       1.57620573    
   1.69323206      0.872922003      -0.00000000       268.522858       1.57620573    
   0.00000000       0.00000000       0.00000000       268.522858       1.57620573    
   1.63445795      0.978555024      -0.00000000       268.522858       1.57620573    
   0.00000000       0.00000000       0.00000000       230.281464       1.57686484    
   1.69323206      0.872922003      -0.00000000       230.281464       1.57686484    
   1.72007501      0.818759024      -0.00000000       230.281464       1.57686484    
   1.74518704      0.763773024      -0.00000000       230.281464       1.57686484    
   1.60258806       1.02992105      -0.00000000       308.139984       1.57550752    
   1.63445795      0.978555024      -0.00000000       308.139984       1.57550752    
   0.00000000       0.00000000       0.00000000       308.139984       1.57550752    
   1.56910396       1.08024895      -0.00000000       308.139984       1.57550752    
   1.45931494       1.22450995      -0.00000000       385.569733       1.57431841    
   1.49743104       1.17759299      -0.00000000       385.569733       1.57431841    
   0.00000000       0.00000000       0.00000000       385.569733       1.57431841    
   1.41972899       1.27019501      -0.00000000       385.569733       1.57431841    
   0.00000000       0.00000000       0.00000000       347.843384       1.57484806    
   1.49743104       1.17759299      -0.00000000       347.843384       1.57484806    
   1.53403997       1.12949002      -0.00000000       347.843384       1.57484806    
   1.56910396       1.08024895      -0.00000000       347.843384       1.57484806    
   1.37871301       1.31459999      -0.00000000       413.224731       1.57432222    
   1.41972899       1.27019501      -0.00000000       413.224731       1.57432222    
   0.00000000       0.00000000       0.00000000       413.224731       1.57432222    
   1.33631003       1.35768199      -0.00000000       413.224731       1.57432222    
   1.20120299       1.47855902      -0.00000000       417.546539       1.57683909    
   1.24750996       1.43970299      -0.00000000       417.546539       1.57683909    
   0.00000000       0.00000000       0.00000000       417.546539       1.57683909    
   1.15368605       1.51592600      -0.00000000       417.546539       1.57683909    
   0.00000000       0.00000000       0.00000000       420.632477       1.57534254    
   1.24750996       1.43970299      -0.00000000       420.632477       1.57534254    
   1.29255998       1.39939702      -0.00000000       420.632477       1.57534254    
   1.33631003       1.35768199      -0.00000000       420.632477       1.57534254    
   1.10500801       1.55176699      -0.00000000       412.660919       1.57834470    
   1.15368605       1.51592600      -0.00000000       412.660919       1.57834470    
   0.00000000       0.00000000       0.00000000       412.660919       1.57834470    
   1.05521798       1.58604598      -0.00000000       412.660919       1.57834470    
  0.899676025       1.67916906      -0.00000000       405.452972       1.58091462    
  0.952499986       1.64977801      -0.00000000       405.452972       1.58091462    
   0.00000000       0.00000000       0.00000000       405.452972       1.58091462    
  0.845947027       1.70686805      -0.00000000       405.452972       1.58091462    
   0.00000000       0.00000000       0.00000000       408.242340       1.57973111    
  0.952499986       1.64977801      -0.00000000       408.242340       1.57973111    
   1.00436401       1.61872697      -0.00000000       408.242340       1.57973111    
   1.05521798       1.58604598      -0.00000000       408.242340       1.57973111    
  0.791365981       1.73284900      -0.00000000       404.183777       1.58188725    
  0.845947027       1.70686805      -0.00000000       404.183777       1.58188725    
   0.00000000       0.00000000       0.00000000       404.183777       1.58188725    
  0.735987008       1.75708497      -0.00000000       404.183777       1.58188725    
  0.565632999       1.81908906      -0.00000000       405.593658       1.58320224    
  0.623063982       1.80022705      -0.00000000       405.593658       1.58320224    
   0.00000000       0.00000000       0.00000000       405.593658       1.58320224    
  0.507632971       1.83611906      -0.00000000       405.593658       1.58320224    
   0.00000000       0.00000000       0.00000000       404.352753       1.58264220    
  0.623063982       1.80022705      -0.00000000       404.352753       1.58264220    
  0.679867983       1.77955198      -0.00000000       404.352753       1.58264220    
  0.735987008       1.75708497      -0.00000000       404.352753       1.58264220    
  0.449120998       1.85130095      -0.00000000       407.448303       1.58359659    
  0.507632971       1.83611906      -0.00000000       407.448303       1.58359659    
   0.00000000       0.00000000       0.00000000       407.448303       1.58359659    
  0.390157014       1.86461902      -0.00000000       407.448303       1.58359659    
  0.211146995       1.89326203      -0.00000000       411.118622       1.58401549    
  0.271109998       1.88560998      -0.00000000       411.118622       1.58401549    
   0.00000000       0.00000000       0.00000000       411.118622       1.58401549    
  0.150970995       1.89900804      -0.00000000       411.118622       1.58401549    
   0.00000000       0.00000000       0.00000000       409.432800       1.58385873    
  0.271109998       1.88560998      -0.00000000       409.432800       1.58385873    
  0.330799997       1.87605906      -0.00000000       409.432800       1.58385873    
  0.390157014       1.86461902      -0.00000000       409.432800       1.58385873    
   9.06440020E-02   1.90284204      -0.00000000       412.376801       1.58407891    
  0.150970995       1.89900804      -0.00000000       412.376801       1.58407891    
   0.00000000       0.00000000       0.00000000       412.376801       1.58407891    
   3.02249994E-02   1.90476000      -0.00000000       412.376801       1.58407891    
 -0.150970995       1.89900804      -0.00000000       412.866699       1.58397889    
  -9.06440020E-02   1.90284204      -0.00000000       412.866699       1.58397889    
   0.00000000       0.00000000       0.00000000       412.866699       1.58397889    
 -0.211146995       1.89326203      -0.00000000       412.866699       1.58397889    
   0.00000000       0.00000000       0.00000000       412.927917       1.58406794    
  -9.06440020E-02   1.90284204      -0.00000000       412.927917       1.58406794    
  -3.02249994E-02   1.90476000      -0.00000000       412.927917       1.58406794    
   3.02249994E-02   1.90476000      -0.00000000       412.927917       1.58406794    
 -0.271109998       1.88560998      -0.00000000       412.422760       1.58379269    
 -0.211146995       1.89326203      -0.00000000       412.422760       1.58379269    
   0.00000000       0.00000000       0.00000000       412.422760       1.58379269    
 -0.330799997       1.87605906      -0.00000000       412.422760       1.58379269    
 -0.507632971       1.83611906      -0.00000000       411.523956       1.58306134    
 -0.449120998       1.85130095      -0.00000000       411.523956       1.58306134    
   0.00000000       0.00000000       0.00000000       411.523956       1.58306134    
 -0.565632999       1.81908906      -0.00000000       411.523956       1.58306134    
   0.00000000       0.00000000       0.00000000       411.841888       1.58349621    
 -0.449120998       1.85130095      -0.00000000       411.841888       1.58349621    
 -0.390157014       1.86461902      -0.00000000       411.841888       1.58349621    
 -0.330799997       1.87605906      -0.00000000       411.841888       1.58349621    
 -0.623063982       1.80022705      -0.00000000       412.022461       1.58245587    
 -0.565632999       1.81908906      -0.00000000       412.022461       1.58245587    
   0.00000000       0.00000000       0.00000000       412.022461       1.58245587    
 -0.679867983       1.77955198      -0.00000000       412.022461       1.58245587    
 -0.845947027       1.70686805      -0.00000000       416.489258       1.58067179    
 -0.791365981       1.73284900      -0.00000000       416.489258       1.58067179    
   0.00000000       0.00000000       0.00000000       416.489258       1.58067179    
 -0.899676025       1.67916906      -0.00000000       416.489258       1.58067179    
   0.00000000       0.00000000       0.00000000       413.537201       1.58166659    
 -0.791365981       1.73284900      -0.00000000       413.537201       1.58166659    
 -0.735987008       1.75708497      -0.00000000       413.537201       1.58166659    
 -0.679867983       1.77955198      -0.00000000       413.537201       1.58166659    
 -0.952499986       1.64977801      -0.00000000       420.939667       1.57948196    
 -0.899676025       1.67916906      -0.00000000       420.939667       1.57948196    
   0.00000000       0.00000000       0.00000000       420.939667       1.57948196    
  -1.00436401       1.61872697      -0.00000000       420.939667       1.57948196    
  -1.15368605       1.51592600      -0.00000000       431.800781       1.57669246    
  -1.10500801       1.55176699      -0.00000000       431.800781       1.57669246    
   0.00000000       0.00000000       0.00000000       431.800781       1.57669246    
  -1.20120299       1.47855902      -0.00000000       431.800781       1.57669246    
   0.00000000       0.00000000       0.00000000       426.463104       1.57813084    
  -1.10500801       1.55176699      -0.00000000       426.463104       1.57813084    
  -1.05521798       1.58604598      -0.00000000       426.463104       1.57813084    
  -1.00436401       1.61872697      -0.00000000       426.463104       1.57813084    
  -1.24750996       1.43970299      -0.00000000       434.833710       1.57528055    
  -1.20120299       1.47855902      -0.00000000       434.833710       1.57528055    
   0.00000000       0.00000000       0.00000000       434.833710       1.57528055    
  -1.29255998       1.39939702      -0.00000000       434.833710       1.57528055    
  -1.41972899       1.27019501      -0.00000000       398.630737       1.57437241    
  -1.37871301       1.31459999      -0.00000000       398.630737       1.57437241    
   0.00000000       0.00000000       0.00000000       398.630737       1.57437241    
  -1.45931494       1.22450995      -0.00000000       398.630737       1.57437241    
   0.00000000       0.00000000       0.00000000       427.222900       1.57432032    
  -1.37871301       1.31459999      -0.00000000       427.222900       1.57432032    
  -1.33631003       1.35768199      -0.00000000       427.222900       1.57432032    
  -1.29255998       1.39939702      -0.00000000       427.222900       1.57432032    
  -1.49743104       1.17759299      -0.00000000       359.354004       1.57499337    
  -1.45931494       1.22450995      -0.00000000       359.354004       1.57499337    
   0.00000000       0.00000000       0.00000000       359.354004       1.57499337    
  -1.53403997       1.12949002      -0.00000000       359.354004       1.57499337    
  -1.63445795      0.978555024      -0.00000000       278.350769       1.57652676    
  -1.60258806       1.02992105      -0.00000000       278.350769       1.57652676    
   0.00000000       0.00000000       0.00000000       278.350769       1.57652676    
  -1.66468298      0.926204979      -0.00000000       278.350769       1.57652676    
   0.00000000       0.00000000       0.00000000       318.468719       1.57574904    
  -1.60258806       1.02992105      -0.00000000       318.468719       1.57574904    
  -1.56910396       1.08024895      -0.00000000       318.468719       1.57574904    
  -1.53403997       1.12949002      -0.00000000       318.468719       1.57574904    
  -1.69323206      0.872922003      -0.00000000       240.211151       1.57724500    
  -1.66468298      0.926204979      -0.00000000       240.211151       1.57724500    
   0.00000000       0.00000000       0.00000000       240.211151       1.57724500    
  -1.72007501      0.818759024      -0.00000000       240.211151       1.57724500    
  -1.79011405      0.651548028      -0.00000000       169.850128       1.57837391    
  -1.76854098      0.708016992      -0.00000000       169.850128       1.57837391    
   0.00000000       0.00000000       0.00000000       169.850128       1.57837391    
  -1.80988598      0.594424009      -0.00000000       169.850128       1.57837391    
   0.00000000       0.00000000       0.00000000       204.077866       1.57787383    
  -1.76854098      0.708016992      -0.00000000       204.077866       1.57787383    
  -1.74518704      0.763773024      -0.00000000       204.077866       1.57787383    
  -1.72007501      0.818759024      -0.00000000       204.077866       1.57787383    
  -1.82783401      0.536701024      -0.00000000       137.159775       1.57874155    
  -1.80988598      0.594424009      -0.00000000       137.159775       1.57874155    
   0.00000000       0.00000000       0.00000000       137.159775       1.57874155    
  -1.84394205      0.478437006      -0.00000000       137.159775       1.57874155    
  -1.88107097      0.300992996      -0.00000000       74.6189575       1.57905209    
  -1.87057400      0.360523999      -0.00000000       74.6189575       1.57905209    
   0.00000000       0.00000000       0.00000000       74.6189575       1.57905209    
  -1.88967395      0.241159007      -0.00000000       74.6189575       1.57905209    
   0.00000000       0.00000000       0.00000000       105.609695       1.57895517    
  -1.87057400      0.360523999      -0.00000000       105.609695       1.57895517    
  -1.85819399      0.419692010      -0.00000000       105.609695       1.57895517    
  -1.84394205      0.478437006      -0.00000000       105.609695       1.57895517    
  -1.89637399      0.181081995      -0.00000000       43.9905281       1.57894444    
  -1.88967395      0.241159007      -0.00000000       43.9905281       1.57894444    
   0.00000000       0.00000000       0.00000000       43.9905281       1.57894444    
  -1.90116501      0.120823003      -0.00000000       43.9905281       1.57894444    
  -1.90404105      -6.04420006E-02  -0.00000000       16.5326633      -1.56033278    
  -1.90499997       0.00000000      -0.00000000       16.5326633      -1.56033278    
   0.00000000       0.00000000       0.00000000       16.5326633      -1.56033278    
  -1.90116501     -0.120823003      -0.00000000       16.5326633      -1.56033278    
   0.00000000       0.00000000       0.00000000       13.6829090       1.57765102    
  -1.90499997       0.00000000      -0.00000000       13.6829090       1.57765102    
  -1.90404105       6.04420006E-02  -0.00000000       13.6829090       1.57765102    
  -1.90116501      0.120823003      -0.00000000       13.6829090       1.57765102    
  -1.89637399     -0.181081995      -0.00000000       46.9707985      -1.56150556    
  -1.90116501     -0.120823003      -0.00000000       46.9707985      -1.56150556    
   0.00000000       0.00000000       0.00000000       46.9707985      -1.56150556    
  -1.88967395     -0.241159007      -0.00000000       46.9707985      -1.56150556    
  -1.85819399     -0.419692010      -0.00000000       108.742386      -1.56218863    
  -1.87057400     -0.360523999      -0.00000000       108.742386      -1.56218863    
   0.00000000       0.00000000       0.00000000       108.742386      -1.56218863    
  -1.84394205     -0.478437006      -0.00000000       108.742386      -1.56218863    
   0.00000000       0.00000000       0.00000000       77.6943359      -1.56189203    
  -1.87057400     -0.360523999      -0.00000000       77.6943359      -1.56189203    
  -1.88107097     -0.300992996      -0.00000000       77.6943359      -1.56189203    
  -1.88967395     -0.241159007      -0.00000000       77.6943359      -1.56189203    
  -1.82783401     -0.536701024      -0.00000000       140.545120      -1.56254303    
  -1.84394205     -0.478437006      -0.00000000       140.545120      -1.56254303    
   0.00000000       0.00000000       0.00000000       140.545120      -1.56254303    
  -1.80988598     -0.594424009      -0.00000000       140.545120      -1.56254303    
  -1.74518704     -0.763773024      -0.00000000       208.174728      -1.56357455    
  -1.76854098     -0.708016992      -0.00000000       208.174728      -1.56357455    
   0.00000000       0.00000000       0.00000000       208.174728      -1.56357455    
  -1.72007501     -0.818759024      -0.00000000       208.174728      -1.56357455    
   0.00000000       0.00000000       0.00000000       173.647964      -1.56301379    
  -1.76854098     -0.708016992      -0.00000000       173.647964      -1.56301379    
  -1.79011405     -0.651548028      -0.00000000       173.647964      -1.56301379    
  -1.80988598     -0.594424009      -0.00000000       173.647964      -1.56301379    
  -1.69323206     -0.872922003      -0.00000000       244.539215      -1.56423891    
  -1.72007501     -0.818759024      -0.00000000       244.539215      -1.56423891    
   0.00000000       0.00000000       0.00000000       244.539215      -1.56423891    
  -1.66468298     -0.926204979      -0.00000000       244.539215      -1.56423891    
  -1.56910396      -1.08024895      -0.00000000       322.390381      -1.56573820    
  -1.60258806      -1.02992105      -0.00000000       322.390381      -1.56573820    
   0.00000000       0.00000000       0.00000000       322.390381      -1.56573820    
  -1.53403997      -1.12949002      -0.00000000       322.390381      -1.56573820    
   0.00000000       0.00000000       0.00000000       282.744141      -1.56497276    
  -1.60258806      -1.02992105      -0.00000000       282.744141      -1.56497276    
  -1.63445795     -0.978555024      -0.00000000       282.744141      -1.56497276    
  -1.66468298     -0.926204979      -0.00000000       282.744141      -1.56497276    
  -1.49743104      -1.17759299      -0.00000000       362.199738      -1.56646025    
  -1.53403997      -1.12949002      -0.00000000       362.199738      -1.56646025    
   0.00000000       0.00000000       0.00000000       362.199738      -1.56646025    
  -1.45931494      -1.22450995      -0.00000000       362.199738      -1.56646025    
  -1.33631003      -1.35768199      -0.00000000       427.268890      -1.56708074    
  -1.37871301      -1.31459999      -0.00000000       427.268890      -1.56708074    
   0.00000000       0.00000000       0.00000000       427.268890      -1.56708074    
  -1.29255998      -1.39939702      -0.00000000       427.268890      -1.56708074    
   0.00000000       0.00000000       0.00000000       399.985504      -1.56704569    
  -1.37871301      -1.31459999      -0.00000000       399.985504      -1.56704569    
  -1.41972899      -1.27019501      -0.00000000       399.985504      -1.56704569    
  -1.45931494      -1.22450995      -0.00000000       399.985504      -1.56704569    
  -1.24750996      -1.43970299      -0.00000000       433.663300      -1.56608546    
  -1.29255998      -1.39939702      -0.00000000       433.663300      -1.56608546    
   0.00000000       0.00000000       0.00000000       433.663300      -1.56608546    
  -1.20120299      -1.47855902      -0.00000000       433.663300      -1.56608546    
  -1.05521798      -1.58604598      -0.00000000       423.235016      -1.56311595    
  -1.10500801      -1.55176699      -0.00000000       423.235016      -1.56311595    
   0.00000000       0.00000000       0.00000000       423.235016      -1.56311595    
  -1.00436401      -1.61872697      -0.00000000       423.235016      -1.56311595    
   0.00000000       0.00000000       0.00000000       429.365479      -1.56460857    
  -1.10500801      -1.55176699      -0.00000000       429.365479      -1.56460857    
  -1.15368605      -1.51592600      -0.00000000       429.365479      -1.56460857    
  -1.20120299      -1.47855902      -0.00000000       429.365479      -1.56460857    
 -0.952499986      -1.64977801      -0.00000000       417.551544      -1.56173527    
  -1.00436401      -1.61872697      -0.00000000       417.551544      -1.56173527    
   0.00000000       0.00000000       0.00000000       417.551544      -1.56173527    
 -0.899676025      -1.67916906      -0.00000000       417.551544      -1.56173527    
 -0.735987008      -1.75708497      -0.00000000       411.130432      -1.55957234    
 -0.791365981      -1.73284900      -0.00000000       411.130432      -1.55957234    
   0.00000000       0.00000000       0.00000000       411.130432      -1.55957234    
 -0.679867983      -1.77955198      -0.00000000       411.130432      -1.55957234    
   0.00000000       0.00000000       0.00000000       413.544373      -1.56054997    
 -0.791365981      -1.73284900      -0.00000000       413.544373      -1.56054997    
 -0.845947027      -1.70686805      -0.00000000       413.544373      -1.56054997    
 -0.899676025      -1.67916906      -0.00000000       413.544373      -1.56054997    
 -0.623063982      -1.80022705      -0.00000000       410.208649      -1.55880892    
 -0.679867983      -1.77955198      -0.00000000       410.208649      -1.55880892    
   0.00000000       0.00000000       0.00000000       410.208649      -1.55880892    
 -0.565632999      -1.81908906      -0.00000000       410.208649      -1.55880892    
 -0.390157014      -1.86461902      -0.00000000       411.233673      -1.55783510    
 -0.449120998      -1.85130095      -0.00000000       411.233673      -1.55783510    
   0.00000000       0.00000000       0.00000000       411.233673      -1.55783510    
 -0.330799997      -1.87605906      -0.00000000       411.233673      -1.55783510    
   0.00000000       0.00000000       0.00000000       410.398743      -1.55823851    
 -0.449120998      -1.85130095      -0.00000000       410.398743      -1.55823851    
 -0.507632971      -1.83611906      -0.00000000       410.398743      -1.55823851    
 -0.565632999      -1.81908906      -0.00000000       410.398743      -1.55823851    
 -0.271109998      -1.88560998      -0.00000000       412.197998      -1.55756056    
 -0.330799997      -1.87605906      -0.00000000       412.197998      -1.55756056    
   0.00000000       0.00000000       0.00000000       412.197998      -1.55756056    
 -0.211146995      -1.89326203      -0.00000000       412.197998      -1.55756056    
  -3.02249994E-02  -1.90476000      -0.00000000       413.102997      -1.55731165    
  -9.06440020E-02  -1.90284204      -0.00000000       413.102997      -1.55731165    
   0.00000000       0.00000000       0.00000000       413.102997      -1.55731165    
   3.02249994E-02  -1.90476000      -0.00000000       413.102997      -1.55731165    
   0.00000000       0.00000000       0.00000000       412.863708      -1.55738950    
  -9.06440020E-02  -1.90284204      -0.00000000       412.863708      -1.55738950    
 -0.150970995      -1.89900804      -0.00000000       412.863708      -1.55738950    
 -0.211146995      -1.89326203      -0.00000000       412.863708      -1.55738950    
   9.06440020E-02  -1.90284204      -0.00000000       412.635651      -1.55730724    
   3.02249994E-02  -1.90476000      -0.00000000       412.635651      -1.55730724    
   0.00000000       0.00000000       0.00000000       412.635651      -1.55730724    
  0.150970995      -1.89900804      -0.00000000       412.635651      -1.55730724    
  0.330799997      -1.87605906      -0.00000000       410.101227      -1.55755210    
  0.271109998      -1.88560998      -0.00000000       410.101227      -1.55755210    
   0.00000000       0.00000000       0.00000000       410.101227      -1.55755210    
  0.390157014      -1.86461902      -0.00000000       410.101227      -1.55755210    
   0.00000000       0.00000000       0.00000000       411.556763      -1.55738175    
  0.271109998      -1.88560998      -0.00000000       411.556763      -1.55738175    
  0.211146995      -1.89326203      -0.00000000       411.556763      -1.55738175    
  0.150970995      -1.89900804      -0.00000000       411.556763      -1.55738175    
  0.449120998      -1.85130095      -0.00000000       408.513916      -1.55783761    
  0.390157014      -1.86461902      -0.00000000       408.513916      -1.55783761    
   0.00000000       0.00000000       0.00000000       408.513916      -1.55783761    
  0.507632971      -1.83611906      -0.00000000       408.513916      -1.55783761    
  0.679867983      -1.77955198      -0.00000000       406.638947      -1.55885875    
  0.623063982      -1.80022705      -0.00000000       406.638947      -1.55885875    
   0.00000000       0.00000000       0.00000000       406.638947      -1.55885875    
  0.735987008      -1.75708497      -0.00000000       406.638947      -1.55885875    
   0.00000000       0.00000000       0.00000000       407.184540      -1.55826056    
  0.623063982      -1.80022705      -0.00000000       407.184540      -1.55826056    
  0.565632999      -1.81908906      -0.00000000       407.184540      -1.55826056    
  0.507632971      -1.83611906      -0.00000000       407.184540      -1.55826056    
  0.791365981      -1.73284900      -0.00000000       407.073608      -1.55964255    
  0.735987008      -1.75708497      -0.00000000       407.073608      -1.55964255    
   0.00000000       0.00000000       0.00000000       407.073608      -1.55964255    
  0.845947027      -1.70686805      -0.00000000       407.073608      -1.55964255    
   1.00436401      -1.61872697      -0.00000000       412.131165      -1.56182790    
  0.952499986      -1.64977801      -0.00000000       412.131165      -1.56182790    
   0.00000000       0.00000000       0.00000000       412.131165      -1.56182790    
   1.05521798      -1.58604598      -0.00000000       412.131165      -1.56182790    
   0.00000000       0.00000000       0.00000000       408.885773      -1.56063509    
  0.952499986      -1.64977801      -0.00000000       408.885773      -1.56063509    
  0.899676025      -1.67916906      -0.00000000       408.885773      -1.56063509    
  0.845947027      -1.70686805      -0.00000000       408.885773      -1.56063509    
   1.10500801      -1.55176699      -0.00000000       416.456421      -1.56319201    
   1.05521798      -1.58604598      -0.00000000       416.456421      -1.56319201    
   0.00000000       0.00000000       0.00000000       416.456421      -1.56319201    
   1.15368605      -1.51592600      -0.00000000       416.456421      -1.56319201    
   1.29255998      -1.39939702      -0.00000000       422.503632      -1.56608593    
   1.24750996      -1.43970299      -0.00000000       422.503632      -1.56608593    
   0.00000000       0.00000000       0.00000000       422.503632      -1.56608593    
   1.33631003      -1.35768199      -0.00000000       422.503632      -1.56608593    
   0.00000000       0.00000000       0.00000000       420.613953      -1.56464911    
   1.24750996      -1.43970299      -0.00000000       420.613953      -1.56464911    
   1.20120299      -1.47855902      -0.00000000       420.613953      -1.56464911    