 VARIABLES="X" "Y" "Z" "abs(p) (Pa)" "angle(p) (rad)"
ZONE N=    802,E =     800, F=FEPOINT, ET=QUADRILATERAL
   1.90499997       0.00000000      -0.00000000       2.02674413      -1.57825148    
   1.90404105      -6.04420006E-02  -0.00000000       2.02674413      -1.57825148    
   0.00000000       0.00000000       0.00000000       2.02674413      -1.57825148    
   1.90404105       6.04420006E-02  -0.00000000       2.02674413      -1.57825148    
   1.88967395      0.241159007      -0.00000000       105.123444      -1.57093585    
   1.89637399      0.181081995      -0.00000000       105.123444      -1.57093585    
   0.00000000       0.00000000       0.00000000       105.123444      -1.57093585    
   1.88107097      0.300992996      -0.00000000       105.123444      -1.57093585    
   0.00000000       0.00000000       0.00000000       53.4069214      -1.57107532    
   1.89637399      0.181081995      -0.00000000       53.4069214      -1.57107532    
   1.90116501      0.120823003      -0.00000000       53.4069214      -1.57107532    
   1.90404105       6.04420006E-02  -0.00000000       53.4069214      -1.57107532    
   1.87057400      0.360523999      -0.00000000       157.910736      -1.57088780    
   1.88107097      0.300992996      -0.00000000       157.910736      -1.57088780    
   0.00000000       0.00000000       0.00000000       157.910736      -1.57088780    
   1.85819399      0.419692010      -0.00000000       157.910736      -1.57088780    
   1.80988598      0.594424009      -0.00000000       268.386139      -1.57084882    
   1.82783401      0.536701024      -0.00000000       268.386139      -1.57084882    
   0.00000000       0.00000000       0.00000000       268.386139      -1.57084882    
   1.79011405      0.651548028      -0.00000000       268.386139      -1.57084882    
   0.00000000       0.00000000       0.00000000       212.281845      -1.57086349    
   1.82783401      0.536701024      -0.00000000       212.281845      -1.57086349    
   1.84394205      0.478437006      -0.00000000       212.281845      -1.57086349    
   1.85819399      0.419692010      -0.00000000       212.281845      -1.57086349    
   1.76854098      0.708016992      -0.00000000       326.750397      -1.57083893    
   1.79011405      0.651548028      -0.00000000       326.750397      -1.57083893    
   0.00000000       0.00000000       0.00000000       326.750397      -1.57083893    
   1.74518704      0.763773024      -0.00000000       326.750397      -1.57083893    
   1.66468298      0.926204979      -0.00000000       451.181366      -1.57082653    
   1.69323206      0.872922003      -0.00000000       451.181366      -1.57082653    
   0.00000000       0.00000000       0.00000000       451.181366      -1.57082653    
   1.63445795      0.978555024      -0.00000000       451.181366      -1.57082653    
   0.00000000       0.00000000       0.00000000       387.777374      -1.57083178    
   1.69323206      0.872922003      -0.00000000       387.777374      -1.57083178    
   1.72007501      0.818759024      -0.00000000       387.777374      -1.57083178    
   1.74518704      0.763773024      -0.00000000       387.777374      -1.57083178    
   1.60258806       1.02992105      -0.00000000       516.180725      -1.57082260    
   1.63445795      0.978555024      -0.00000000       516.180725      -1.57082260    
   0.00000000       0.00000000       0.00000000       516.180725      -1.57082260    
   1.56910396       1.08024895      -0.00000000       516.180725      -1.57082260    
   1.45931494       1.22450995      -0.00000000       643.661804      -1.57081723    
   1.49743104       1.17759299      -0.00000000       643.661804      -1.57081723    
   0.00000000       0.00000000       0.00000000       643.661804      -1.57081723    
   1.41972899       1.27019501      -0.00000000       643.661804      -1.57081723    
   0.00000000       0.00000000       0.00000000       581.464905      -1.57081950    
   1.49743104       1.17759299      -0.00000000       581.464905      -1.57081950    
   1.53403997       1.12949002      -0.00000000       581.464905      -1.57081950    
   1.56910396       1.08024895      -0.00000000       581.464905      -1.57081950    
   1.37871301       1.31459999      -0.00000000       690.072083      -1.57081556    
   1.41972899       1.27019501      -0.00000000       690.072083      -1.57081556    
   0.00000000       0.00000000       0.00000000       690.072083      -1.57081556    
   1.33631003       1.35768199      -0.00000000       690.072083      -1.57081556    
   1.20120299       1.47855902      -0.00000000       701.973999      -1.57081437    
   1.24750996       1.43970299      -0.00000000       701.973999      -1.57081437    
   0.00000000       0.00000000       0.00000000       701.973999      -1.57081437    
   1.15368605       1.51592600      -0.00000000       701.973999      -1.57081437    
   0.00000000       0.00000000       0.00000000       704.137756      -1.57081473    
   1.24750996       1.43970299      -0.00000000       704.137756      -1.57081473    
   1.29255998       1.39939702      -0.00000000       704.137756      -1.57081473    
   1.33631003       1.35768199      -0.00000000       704.137756      -1.57081473    
   1.10500801       1.55176699      -0.00000000       696.950806      -1.57081389    
   1.15368605       1.51592600      -0.00000000       696.950806      -1.57081389    
   0.00000000       0.00000000       0.00000000       696.950806      -1.57081389    
   1.05521798       1.58604598      -0.00000000       696.950806      -1.57081389    
  0.899676025       1.67916906      -0.00000000       689.562500      -1.57081330    
  0.952499986       1.64977801      -0.00000000       689.562500      -1.57081330    
   0.00000000       0.00000000       0.00000000       689.562500      -1.57081330    
  0.845947027       1.70686805      -0.00000000       689.562500      -1.57081330    
   0.00000000       0.00000000       0.00000000       692.469849      -1.57081354    
  0.952499986       1.64977801      -0.00000000       692.469849      -1.57081354    
   1.00436401       1.61872697      -0.00000000       692.469849      -1.57081354    
   1.05521798       1.58604598      -0.00000000       692.469849      -1.57081354    
  0.791365981       1.73284900      -0.00000000       688.941895      -1.57081294    
  0.845947027       1.70686805      -0.00000000       688.941895      -1.57081294    
   0.00000000       0.00000000       0.00000000       688.941895      -1.57081294    
  0.735987008       1.75708497      -0.00000000       688.941895      -1.57081294    
  0.565632999       1.81908906      -0.00000000       692.736084      -1.57081246    
  0.623063982       1.80022705      -0.00000000       692.736084      -1.57081246    
   0.00000000       0.00000000       0.00000000       692.736084      -1.57081246    
  0.507632971       1.83611906      -0.00000000       692.736084      -1.57081246    
   0.00000000       0.00000000       0.00000000       690.151550      -1.57081270    
  0.623063982       1.80022705      -0.00000000       690.151550      -1.57081270    
  0.679867983       1.77955198      -0.00000000       690.151550      -1.57081270    
  0.735987008       1.75708497      -0.00000000       690.151550      -1.57081270    
  0.449120998       1.85130095      -0.00000000       695.933533      -1.57081211    
  0.507632971       1.83611906      -0.00000000       695.933533      -1.57081211    
   0.00000000       0.00000000       0.00000000       695.933533      -1.57081211    
  0.390157014       1.86461902      -0.00000000       695.933533      -1.57081211    
  0.211146995       1.89326203      -0.00000000       701.948853      -1.57081175    
  0.271109998       1.88560998      -0.00000000       701.948853      -1.57081175    
   0.00000000       0.00000000       0.00000000       701.948853      -1.57081175    
  0.150970995       1.89900804      -0.00000000       701.948853      -1.57081175    
   0.00000000       0.00000000       0.00000000       699.220215      -1.57081187    
  0.271109998       1.88560998      -0.00000000       699.220215      -1.57081187    
  0.330799997       1.87605906      -0.00000000       699.220215      -1.57081187    
  0.390157014       1.86461902      -0.00000000       699.220215      -1.57081187    
   9.06440020E-02   1.90284204      -0.00000000       703.727173      -1.57081163    
  0.150970995       1.89900804      -0.00000000       703.727173      -1.57081163    
   0.00000000       0.00000000       0.00000000       703.727173      -1.57081163    
   3.02249994E-02   1.90476000      -0.00000000       703.727173      -1.57081163    
 -0.150970995       1.89900804      -0.00000000       704.983643      -1.57081175    
  -9.06440020E-02   1.90284204      -0.00000000       704.983643      -1.57081175    
   0.00000000       0.00000000       0.00000000       704.983643      -1.57081175    
 -0.211146995       1.89326203      -0.00000000       704.983643      -1.57081175    
   0.00000000       0.00000000       0.00000000       704.790649      -1.57081175    
  -9.06440020E-02   1.90284204      -0.00000000       704.790649      -1.57081175    
  -3.02249994E-02   1.90476000      -0.00000000       704.790649      -1.57081175    
   3.02249994E-02   1.90476000      -0.00000000       704.790649      -1.57081175    
 -0.271109998       1.88560998      -0.00000000       704.324341      -1.57081187    
 -0.211146995       1.89326203      -0.00000000       704.324341      -1.57081187    
   0.00000000       0.00000000       0.00000000       704.324341      -1.57081187    
 -0.330799997       1.87605906      -0.00000000       704.324341      -1.57081187    
 -0.507632971       1.83611906      -0.00000000       702.900513      -1.57081211    
 -0.449120998       1.85130095      -0.00000000       702.900513      -1.57081211    
   0.00000000       0.00000000       0.00000000       702.900513      -1.57081211    
 -0.565632999       1.81908906      -0.00000000       702.900513      -1.57081211    
   0.00000000       0.00000000       0.00000000       703.445129      -1.57081199    
 -0.449120998       1.85130095      -0.00000000       703.445129      -1.57081199    
 -0.390157014       1.86461902      -0.00000000       703.445129      -1.57081199    
 -0.330799997       1.87605906      -0.00000000       703.445129      -1.57081199    
 -0.623063982       1.80022705      -0.00000000       703.174866      -1.57081234    
 -0.565632999       1.81908906      -0.00000000       703.174866      -1.57081234    
   0.00000000       0.00000000       0.00000000       703.174866      -1.57081234    
 -0.679867983       1.77955198      -0.00000000       703.174866      -1.57081234    
 -0.845947027       1.70686805      -0.00000000       708.585327      -1.57081282    
 -0.791365981       1.73284900      -0.00000000       708.585327      -1.57081282    
   0.00000000       0.00000000       0.00000000       708.585327      -1.57081282    
 -0.899676025       1.67916906      -0.00000000       708.585327      -1.57081282    
   0.00000000       0.00000000       0.00000000       704.947021      -1.57081258    
 -0.791365981       1.73284900      -0.00000000       704.947021      -1.57081258    
 -0.735987008       1.75708497      -0.00000000       704.947021      -1.57081258    
 -0.679867983       1.77955198      -0.00000000       704.947021      -1.57081258    
 -0.952499986       1.64977801      -0.00000000       713.843994      -1.57081306    
 -0.899676025       1.67916906      -0.00000000       713.843994      -1.57081306    
   0.00000000       0.00000000       0.00000000       713.843994      -1.57081306    
  -1.00436401       1.61872697      -0.00000000       713.843994      -1.57081306    
  -1.15368605       1.51592600      -0.00000000       725.765137      -1.57081366    
  -1.10500801       1.55176699      -0.00000000       725.765137      -1.57081366    
   0.00000000       0.00000000       0.00000000       725.765137      -1.57081366    
  -1.20120299       1.47855902      -0.00000000       725.765137      -1.57081366    
   0.00000000       0.00000000       0.00000000       720.003540      -1.57081330    
  -1.10500801       1.55176699      -0.00000000       720.003540      -1.57081330    
  -1.05521798       1.58604598      -0.00000000       720.003540      -1.57081330    
  -1.00436401       1.61872697      -0.00000000       720.003540      -1.57081330    
  -1.24750996       1.43970299      -0.00000000       727.877625      -1.57081413    
  -1.20120299       1.47855902      -0.00000000       727.877625      -1.57081413    
   0.00000000       0.00000000       0.00000000       727.877625      -1.57081413    
  -1.29255998       1.39939702      -0.00000000       727.877625      -1.57081413    
  -1.41972899       1.27019501      -0.00000000       665.368958      -1.57081640    
  -1.37871301       1.31459999      -0.00000000       665.368958      -1.57081640    
   0.00000000       0.00000000       0.00000000       665.368958      -1.57081640    
  -1.45931494       1.22450995      -0.00000000       665.368958      -1.57081640    
   0.00000000       0.00000000       0.00000000       713.374451      -1.57081485    
  -1.37871301       1.31459999      -0.00000000       713.374451      -1.57081485    
  -1.33631003       1.35768199      -0.00000000       713.374451      -1.57081485    
  -1.29255998       1.39939702      -0.00000000       713.374451      -1.57081485    
  -1.49743104       1.17759299      -0.00000000       600.698425      -1.57081854    
  -1.45931494       1.22450995      -0.00000000       600.698425      -1.57081854    
   0.00000000       0.00000000       0.00000000       600.698425      -1.57081854    
  -1.53403997       1.12949002      -0.00000000       600.698425      -1.57081854    
  -1.63445795      0.978555024      -0.00000000       467.623627      -1.57082522    
  -1.60258806       1.02992105      -0.00000000       467.623627      -1.57082522    
   0.00000000       0.00000000       0.00000000       467.623627      -1.57082522    
  -1.66468298      0.926204979      -0.00000000       467.623627      -1.57082522    
   0.00000000       0.00000000       0.00000000       533.543945      -1.57082152    
  -1.60258806       1.02992105      -0.00000000       533.543945      -1.57082152    
  -1.56910396       1.08024895      -0.00000000       533.543945      -1.57082152    
  -1.53403997       1.12949002      -0.00000000       533.543945      -1.57082152    
  -1.69323206      0.872922003      -0.00000000       404.091492      -1.57083011    
  -1.66468298      0.926204979      -0.00000000       404.091492      -1.57083011    
   0.00000000       0.00000000       0.00000000       404.091492      -1.57083011    
  -1.72007501      0.818759024      -0.00000000       404.091492      -1.57083011    
  -1.79011405      0.651548028      -0.00000000       286.174286      -1.57084489    
  -1.76854098      0.708016992      -0.00000000       286.174286      -1.57084489    
   0.00000000       0.00000000       0.00000000       286.174286      -1.57084489    
  -1.80988598      0.594424009      -0.00000000       286.174286      -1.57084489    
   0.00000000       0.00000000       0.00000000       343.730133      -1.57083631    
  -1.76854098      0.708016992      -0.00000000       343.730133      -1.57083631    
  -1.74518704      0.763773024      -0.00000000       343.730133      -1.57083631    
  -1.72007501      0.818759024      -0.00000000       343.730133      -1.57083631    
  -1.82783401      0.536701024      -0.00000000       230.821381      -1.57085741    
  -1.80988598      0.594424009      -0.00000000       230.821381      -1.57085741    
   0.00000000       0.00000000       0.00000000       230.821381      -1.57085741    
  -1.84394205      0.478437006      -0.00000000       230.821381      -1.57085741    
  -1.88107097      0.300992996      -0.00000000       125.146172      -1.57091236    
  -1.87057400      0.360523999      -0.00000000       125.146172      -1.57091236    
   0.00000000       0.00000000       0.00000000       125.146172      -1.57091236    
  -1.88967395      0.241159007      -0.00000000       125.146172      -1.57091236    
   0.00000000       0.00000000       0.00000000       177.269638      -1.57087708    
  -1.87057400      0.360523999      -0.00000000       177.269638      -1.57087708    
  -1.85819399      0.419692010      -0.00000000       177.269638      -1.57087708    
  -1.84394205      0.478437006      -0.00000000       177.269638      -1.57087708    
  -1.89637399      0.181081995      -0.00000000       73.8548889      -1.57099617    
  -1.88967395      0.241159007      -0.00000000       73.8548889      -1.57099617    
   0.00000000       0.00000000       0.00000000       73.8548889      -1.57099617    
  -1.90116501      0.120823003      -0.00000000       73.8548889      -1.57099617    
  -1.90404105      -6.04420006E-02  -0.00000000       27.9709625       1.57134080    
  -1.90499997       0.00000000      -0.00000000       27.9709625       1.57134080    
   0.00000000       0.00000000       0.00000000       27.9709625       1.57134080    
  -1.90116501     -0.120823003      -0.00000000       27.9709625       1.57134080    
   0.00000000       0.00000000       0.00000000       22.8456688      -1.57145345    
  -1.90499997       0.00000000      -0.00000000       22.8456688      -1.57145345    
  -1.90404105       6.04420006E-02  -0.00000000       22.8456688      -1.57145345    
  -1.90116501      0.120823003      -0.00000000       22.8456688      -1.57145345    
  -1.89637399     -0.181081995      -0.00000000       78.9820251       1.57099199    
  -1.90116501     -0.120823003      -0.00000000       78.9820251       1.57099199    
   0.00000000       0.00000000       0.00000000       78.9820251       1.57099199    
  -1.88967395     -0.241159007      -0.00000000       78.9820251       1.57099199    
  -1.85819399     -0.419692010      -0.00000000       183.059067       1.57088339    
  -1.87057400     -0.360523999      -0.00000000       183.059067       1.57088339    
   0.00000000       0.00000000       0.00000000       183.059067       1.57088339    
  -1.84394205     -0.478437006      -0.00000000       183.059067       1.57088339    
   0.00000000       0.00000000       0.00000000       130.467010       1.57091677    
  -1.87057400     -0.360523999      -0.00000000       130.467010       1.57091677    
  -1.88107097     -0.300992996      -0.00000000       130.467010       1.57091677    
  -1.88967395     -0.241159007      -0.00000000       130.467010       1.57091677    
  -1.82783401     -0.536701024      -0.00000000       237.172699       1.57086420    
  -1.84394205     -0.478437006      -0.00000000       237.172699       1.57086420    
   0.00000000       0.00000000       0.00000000       237.172699       1.57086420    
  -1.80988598     -0.594424009      -0.00000000       237.172699       1.57086420    
  -1.74518704     -0.763773024      -0.00000000       351.104309       1.57084322    
  -1.76854098     -0.708016992      -0.00000000       351.104309       1.57084322    
   0.00000000       0.00000000       0.00000000       351.104309       1.57084322    
  -1.72007501     -0.818759024      -0.00000000       351.104309       1.57084322    
   0.00000000       0.00000000       0.00000000       292.946472       1.57085204    
  -1.76854098     -0.708016992      -0.00000000       292.946472       1.57085204    
  -1.79011405     -0.651548028      -0.00000000       292.946472       1.57085204    
  -1.80988598     -0.594424009      -0.00000000       292.946472       1.57085204    
  -1.69323206     -0.872922003      -0.00000000       412.048492       1.57083654    
  -1.72007501     -0.818759024      -0.00000000       412.048492       1.57083654    
   0.00000000       0.00000000       0.00000000       412.048492       1.57083654    
  -1.66468298     -0.926204979      -0.00000000       412.048492       1.57083654    
  -1.56910396      -1.08024895      -0.00000000       540.511169       1.57082748    
  -1.60258806      -1.02992105      -0.00000000       540.511169       1.57082748    
   0.00000000       0.00000000       0.00000000       540.511169       1.57082748    
  -1.53403997      -1.12949002      -0.00000000       540.511169       1.57082748    
   0.00000000       0.00000000       0.00000000       475.443665       1.57083142    
  -1.60258806      -1.02992105      -0.00000000       475.443665       1.57083142    
  -1.63445795     -0.978555024      -0.00000000       475.443665       1.57083142    
  -1.66468298     -0.926204979      -0.00000000       475.443665       1.57083142    
  -1.49743104      -1.17759299      -0.00000000       605.902832       1.57082415    
  -1.53403997      -1.12949002      -0.00000000       605.902832       1.57082415    
   0.00000000       0.00000000       0.00000000       605.902832       1.57082415    
  -1.45931494      -1.22450995      -0.00000000       605.902832       1.57082415    
  -1.33631003      -1.35768199      -0.00000000       713.695374       1.57082009    
  -1.37871301      -1.31459999      -0.00000000       713.695374       1.57082009    
   0.00000000       0.00000000       0.00000000       713.695374       1.57082009    
  -1.29255998      -1.39939702      -0.00000000       713.695374       1.57082009    
   0.00000000       0.00000000       0.00000000       668.017639       1.57082164    
  -1.37871301      -1.31459999      -0.00000000       668.017639       1.57082164    
  -1.41972899      -1.27019501      -0.00000000       668.017639       1.57082164    
  -1.45931494      -1.22450995      -0.00000000       668.017639       1.57082164    
  -1.24750996      -1.43970299      -0.00000000       726.036804       1.57082009    
  -1.29255998      -1.39939702      -0.00000000       726.036804       1.57082009    
   0.00000000       0.00000000       0.00000000       726.036804       1.57082009    
  -1.20120299      -1.47855902      -0.00000000       726.036804       1.57082009    
  -1.05521798      -1.58604598      -0.00000000       714.727722       1.57082152    
  -1.10500801      -1.55176699      -0.00000000       714.727722       1.57082152    
   0.00000000       0.00000000       0.00000000       714.727722       1.57082152    
  -1.00436401      -1.61872697      -0.00000000       714.727722       1.57082152    
   0.00000000       0.00000000       0.00000000       721.834534       1.57082081    
  -1.10500801      -1.55176699      -0.00000000       721.834534       1.57082081    
  -1.15368605      -1.51592600      -0.00000000       721.834534       1.57082081    
  -1.20120299      -1.47855902      -0.00000000       721.834534       1.57082081    
 -0.952499986      -1.64977801      -0.00000000       708.163513       1.57082224    
  -1.00436401      -1.61872697      -0.00000000       708.163513       1.57082224    
   0.00000000       0.00000000       0.00000000       708.163513       1.57082224    
 -0.899676025      -1.67916906      -0.00000000       708.163513       1.57082224    
 -0.735987008      -1.75708497      -0.00000000       700.701050       1.57082319    
 -0.791365981      -1.73284900      -0.00000000       700.701050       1.57082319    
   0.00000000       0.00000000       0.00000000       700.701050       1.57082319    
 -0.679867983      -1.77955198      -0.00000000       700.701050       1.57082319    
   0.00000000       0.00000000       0.00000000       703.248779       1.57082283    
 -0.791365981      -1.73284900      -0.00000000       703.248779       1.57082283    
 -0.845947027      -1.70686805      -0.00000000       703.248779       1.57082283    
 -0.899676025      -1.67916906      -0.00000000       703.248779       1.57082283    
 -0.623063982      -1.80022705      -0.00000000       700.063660       1.57082343    
 -0.679867983      -1.77955198      -0.00000000       700.063660       1.57082343    
   0.00000000       0.00000000       0.00000000       700.063660       1.57082343    
 -0.565632999      -1.81908906      -0.00000000       700.063660       1.57082343    
 -0.390157014      -1.86461902      -0.00000000       702.280151       1.57082367    
 -0.449120998      -1.85130095      -0.00000000       702.280151       1.57082367    
   0.00000000       0.00000000       0.00000000       702.280151       1.57082367    
 -0.330799997      -1.87605906      -0.00000000       702.280151       1.57082367    
   0.00000000       0.00000000       0.00000000       700.851685       1.57082367    
 -0.449120998      -1.85130095      -0.00000000       700.851685       1.57082367    
 -0.507632971      -1.83611906      -0.00000000       700.851685       1.57082367    
 -0.565632999      -1.81908906      -0.00000000       700.851685       1.57082367    
 -0.271109998      -1.88560998      -0.00000000       703.857117       1.57082379    
 -0.330799997      -1.87605906      -0.00000000       703.857117       1.57082379    
   0.00000000       0.00000000       0.00000000       703.857117       1.57082379    
 -0.211146995      -1.89326203      -0.00000000       703.857117       1.57082379    
  -3.02249994E-02  -1.90476000      -0.00000000       705.010925       1.57082391    
  -9.06440020E-02  -1.90284204      -0.00000000       705.010925       1.57082391    
   0.00000000       0.00000000       0.00000000       705.010925       1.57082391    
   3.02249994E-02  -1.90476000      -0.00000000       705.010925       1.57082391    
   0.00000000       0.00000000       0.00000000       704.904907       1.57082379    
  -9.06440020E-02  -1.90284204      -0.00000000       704.904907       1.57082379    
 -0.150970995      -1.89900804      -0.00000000       704.904907       1.57082379    
 -0.211146995      -1.89326203      -0.00000000       704.904907       1.57082379    
   9.06440020E-02  -1.90284204      -0.00000000       704.408997       1.57082391    
   3.02249994E-02  -1.90476000      -0.00000000       704.408997       1.57082391    
   0.00000000       0.00000000       0.00000000       704.408997       1.57082391    
  0.150970995      -1.89900804      -0.00000000       704.408997       1.57082391    
  0.330799997      -1.87605906      -0.00000000       700.594604       1.57082391    
  0.271109998      -1.88560998      -0.00000000       700.594604       1.57082391    
   0.00000000       0.00000000       0.00000000       700.594604       1.57082391    
  0.390157014      -1.86461902      -0.00000000       700.594604       1.57082391    
   0.00000000       0.00000000       0.00000000       702.929443       1.57082391    
  0.271109998      -1.88560998      -0.00000000       702.929443       1.57082391    
  0.211146995      -1.89326203      -0.00000000       702.929443       1.57082391    
  0.150970995      -1.89900804      -0.00000000       702.929443       1.57082391    
  0.449120998      -1.85130095      -0.00000000       697.980957       1.57082391    
  0.390157014      -1.86461902      -0.00000000       697.980957       1.57082391    
   0.00000000       0.00000000       0.00000000       697.980957       1.57082391    
  0.507632971      -1.83611906      -0.00000000       697.980957       1.57082391    
  0.679867983      -1.77955198      -0.00000000       694.204102       1.57082367    
  0.623063982      -1.80022705      -0.00000000       694.204102       1.57082367    
   0.00000000       0.00000000       0.00000000       694.204102       1.57082367    
  0.735987008      -1.75708497      -0.00000000       694.204102       1.57082367    
   0.00000000       0.00000000       0.00000000       695.701294       1.57082379    
  0.623063982      -1.80022705      -0.00000000       695.701294       1.57082379    
  0.565632999      -1.81908906      -0.00000000       695.701294       1.57082379    
  0.507632971      -1.83611906      -0.00000000       695.701294       1.57082379    
  0.791365981      -1.73284900      -0.00000000       694.141663       1.57082331    
  0.735987008      -1.75708497      -0.00000000       694.141663       1.57082331    
   0.00000000       0.00000000       0.00000000       694.141663       1.57082331    
  0.845947027      -1.70686805      -0.00000000       694.141663       1.57082331    
   1.00436401      -1.61872697      -0.00000000       699.156067       1.57082236    
  0.952499986      -1.64977801      -0.00000000       699.156067       1.57082236    
   0.00000000       0.00000000       0.00000000       699.156067       1.57082236    
   1.05521798      -1.58604598      -0.00000000       699.156067       1.57082236    
   0.00000000       0.00000000       0.00000000       695.867188       1.57082295    
  0.952499986      -1.64977801      -0.00000000       695.867188       1.57082295    
  0.899676025      -1.67916906      -0.00000000       695.867188       1.57082295    
  0.845947027      -1.70686805      -0.00000000       695.867188       1.57082295    
   1.10500801      -1.55176699      -0.00000000       703.290039       1.57082176    
   1.05521798      -1.58604598      -0.00000000       703.290039       1.57082176    
   0.00000000       0.00000000       0.00000000       703.290039       1.57082176    
   1.15368605      -1.51592600      -0.00000000       703.290039       1.57082176    
   1.29255998      -1.39939702      -0.00000000       707.220337       1.57082081    
   1.24750996      -1.43970299      -0.00000000       707.220337       1.57082081    
   0.00000000       0.00000000       0.00000000       707.220337       1.57082081    
   1.33631003      -1.35768199      -0.00000000       707.220337       1.57082081    
   0.00000000       0.00000000       0.00000000       707.048279       1.57082117    
   1.24750996      -1.43970299      -0.00000000       707.048279       1.57082117    
   1.20120299      -1.47855902      -0.00000000       707.048279       1.57082117    