 VARIABLES="X" "Y" "Z" "abs(p) (Pa)" "angle(p) (rad)"
ZONE N=    802,E =     800, F=FEPOINT, ET=QUADRILATERAL
   1.90499997       0.00000000      -0.00000000       4.01759958      -1.59448767    
   1.90404105      -6.04420006E-02  -0.00000000       4.01759958      -1.59448767    
   0.00000000       0.00000000       0.00000000       4.01759958      -1.59448767    
   1.90404105       6.04420006E-02  -0.00000000       4.01759958      -1.59448767    
   1.88967395      0.241159007      -0.00000000       215.946289      -1.57096398    
   1.89637399      0.181081995      -0.00000000       215.946289      -1.57096398    
   0.00000000       0.00000000       0.00000000       215.946289      -1.57096398    
   1.88107097      0.300992996      -0.00000000       215.946289      -1.57096398    
   0.00000000       0.00000000       0.00000000       109.432510      -1.57139683    
   1.89637399      0.181081995      -0.00000000       109.432510      -1.57139683    
   1.90116501      0.120823003      -0.00000000       109.432510      -1.57139683    
   1.90404105       6.04420006E-02  -0.00000000       109.432510      -1.57139683    
   1.87057400      0.360523999      -0.00000000       324.155579      -1.57082105    
   1.88107097      0.300992996      -0.00000000       324.155579      -1.57082105    
   0.00000000       0.00000000       0.00000000       324.155579      -1.57082105    
   1.85819399      0.419692010      -0.00000000       324.155579      -1.57082105    
   1.80988598      0.594424009      -0.00000000       550.400574      -1.57071924    
   1.82783401      0.536701024      -0.00000000       550.400574      -1.57071924    
   0.00000000       0.00000000       0.00000000       550.400574      -1.57071924    
   1.79011405      0.651548028      -0.00000000       550.400574      -1.57071924    
   0.00000000       0.00000000       0.00000000       435.464172      -1.57075453    
   1.82783401      0.536701024      -0.00000000       435.464172      -1.57075453    
   1.84394205      0.478437006      -0.00000000       435.464172      -1.57075453    
   1.85819399      0.419692010      -0.00000000       435.464172      -1.57075453    
   1.76854098      0.708016992      -0.00000000       670.024475      -1.57070065    
   1.79011405      0.651548028      -0.00000000       670.024475      -1.57070065    
   0.00000000       0.00000000       0.00000000       670.024475      -1.57070065    
   1.74518704      0.763773024      -0.00000000       670.024475      -1.57070065    
   1.66468298      0.926204979      -0.00000000       926.142761      -1.57069302    
   1.69323206      0.872922003      -0.00000000       926.142761      -1.57069302    
   0.00000000       0.00000000       0.00000000       926.142761      -1.57069302    
   1.63445795      0.978555024      -0.00000000       926.142761      -1.57069302    
   0.00000000       0.00000000       0.00000000       795.395203      -1.57069337    
   1.69323206      0.872922003      -0.00000000       795.395203      -1.57069337    
   1.72007501      0.818759024      -0.00000000       795.395203      -1.57069337    
   1.74518704      0.763773024      -0.00000000       795.395203      -1.57069337    
   1.60258806       1.02992105      -0.00000000       1060.54187      -1.57069635    
   1.63445795      0.978555024      -0.00000000       1060.54187      -1.57069635    
   0.00000000       0.00000000       0.00000000       1060.54187      -1.57069635    
   1.56910396       1.08024895      -0.00000000       1060.54187      -1.57069635    
   1.45931494       1.22450995      -0.00000000       1323.09937      -1.57070720    
   1.49743104       1.17759299      -0.00000000       1323.09937      -1.57070720    
   0.00000000       0.00000000       0.00000000       1323.09937      -1.57070720    
   1.41972899       1.27019501      -0.00000000       1323.09937      -1.57070720    
   0.00000000       0.00000000       0.00000000       1194.98743      -1.57070255    
   1.49743104       1.17759299      -0.00000000       1194.98743      -1.57070255    
   1.53403997       1.12949002      -0.00000000       1194.98743      -1.57070255    
   1.56910396       1.08024895      -0.00000000       1194.98743      -1.57070255    
   1.37871301       1.31459999      -0.00000000       1418.28210      -1.57070208    
   1.41972899       1.27019501      -0.00000000       1418.28210      -1.57070208    
   0.00000000       0.00000000       0.00000000       1418.28210      -1.57070208    
   1.33631003       1.35768199      -0.00000000       1418.28210      -1.57070208    
   1.20120299       1.47855902      -0.00000000       1440.20508      -1.57064104    
   1.24750996       1.43970299      -0.00000000       1440.20508      -1.57064104    
   0.00000000       0.00000000       0.00000000       1440.20508      -1.57064104    
   1.15368605       1.51592600      -0.00000000       1440.20508      -1.57064104    
   0.00000000       0.00000000       0.00000000       1446.42456      -1.57067633    
   1.24750996       1.43970299      -0.00000000       1446.42456      -1.57067633    
   1.29255998       1.39939702      -0.00000000       1446.42456      -1.57067633    
   1.33631003       1.35768199      -0.00000000       1446.42456      -1.57067633    
   1.10500801       1.55176699      -0.00000000       1428.34985      -1.57060623    
   1.15368605       1.51592600      -0.00000000       1428.34985      -1.57060623    
   0.00000000       0.00000000       0.00000000       1428.34985      -1.57060623    
   1.05521798       1.58604598      -0.00000000       1428.34985      -1.57060623    
  0.899676025       1.67916906      -0.00000000       1411.13062      -1.57054663    
  0.952499986       1.64977801      -0.00000000       1411.13062      -1.57054663    
   0.00000000       0.00000000       0.00000000       1411.13062      -1.57054663    
  0.845947027       1.70686805      -0.00000000       1411.13062      -1.57054663    
   0.00000000       0.00000000       0.00000000       1417.59094      -1.57057428    
  0.952499986       1.64977801      -0.00000000       1417.59094      -1.57057428    
   1.00436401       1.61872697      -0.00000000       1417.59094      -1.57057428    
   1.05521798       1.58604598      -0.00000000       1417.59094      -1.57057428    
  0.791365981       1.73284900      -0.00000000       1409.07996      -1.57052350    
  0.845947027       1.70686805      -0.00000000       1409.07996      -1.57052350    
   0.00000000       0.00000000       0.00000000       1409.07996      -1.57052350    
  0.735987008       1.75708497      -0.00000000       1409.07996      -1.57052350    
  0.565632999       1.81908906      -0.00000000       1415.66516      -1.57049131    
  0.623063982       1.80022705      -0.00000000       1415.66516      -1.57049131    
   0.00000000       0.00000000       0.00000000       1415.66516      -1.57049131    
  0.507632971       1.83611906      -0.00000000       1415.66516      -1.57049131    
   0.00000000       0.00000000       0.00000000       1410.94519      -1.57050526    
  0.623063982       1.80022705      -0.00000000       1410.94519      -1.57050526    
  0.679867983       1.77955198      -0.00000000       1410.94519      -1.57050526    
  0.735987008       1.75708497      -0.00000000       1410.94519      -1.57050526    
  0.449120998       1.85130095      -0.00000000       1422.13660      -1.57048094    
  0.507632971       1.83611906      -0.00000000       1422.13660      -1.57048094    
   0.00000000       0.00000000       0.00000000       1422.13660      -1.57048094    
  0.390157014       1.86461902      -0.00000000       1422.13660      -1.57048094    
  0.211146995       1.89326203      -0.00000000       1434.34814      -1.57046998    
  0.271109998       1.88560998      -0.00000000       1434.34814      -1.57046998    
   0.00000000       0.00000000       0.00000000       1434.34814      -1.57046998    
  0.150970995       1.89900804      -0.00000000       1434.34814      -1.57046998    
   0.00000000       0.00000000       0.00000000       1428.92200      -1.57047415    
  0.271109998       1.88560998      -0.00000000       1428.92200      -1.57047415    
  0.330799997       1.87605906      -0.00000000       1428.92200      -1.57047415    
  0.390157014       1.86461902      -0.00000000       1428.92200      -1.57047415    
   9.06440020E-02   1.90284204      -0.00000000       1438.30847      -1.57046807    
  0.150970995       1.89900804      -0.00000000       1438.30847      -1.57046807    
   0.00000000       0.00000000       0.00000000       1438.30847      -1.57046807    
   3.02249994E-02   1.90476000      -0.00000000       1438.30847      -1.57046807    
 -0.150970995       1.89900804      -0.00000000       1440.60254      -1.57047069    
  -9.06440020E-02   1.90284204      -0.00000000       1440.60254      -1.57047069    
   0.00000000       0.00000000       0.00000000       1440.60254      -1.57047069    
 -0.211146995       1.89326203      -0.00000000       1440.60254      -1.57047069    
   0.00000000       0.00000000       0.00000000       1440.34705      -1.57046795    
  -9.06440020E-02   1.90284204      -0.00000000       1440.34705      -1.57046795    
  -3.02249994E-02   1.90476000      -0.00000000       1440.34705      -1.57046795    
   3.02249994E-02   1.90476000      -0.00000000       1440.34705      -1.57046795    
 -0.271109998       1.88560998      -0.00000000       1439.33716      -1.57047546    
 -0.211146995       1.89326203      -0.00000000       1439.33716      -1.57047546    
   0.00000000       0.00000000       0.00000000       1439.33716      -1.57047546    
 -0.330799997       1.87605906      -0.00000000       1439.33716      -1.57047546    
 -0.507632971       1.83611906      -0.00000000       1436.63782      -1.57049394    
 -0.449120998       1.85130095      -0.00000000       1436.63782      -1.57049394    
   0.00000000       0.00000000       0.00000000       1436.63782      -1.57049394    
 -0.565632999       1.81908906      -0.00000000       1436.63782      -1.57049394    
   0.00000000       0.00000000       0.00000000       1437.37769      -1.57048309    
 -0.449120998       1.85130095      -0.00000000       1437.37769      -1.57048309    
 -0.390157014       1.86461902      -0.00000000       1437.37769      -1.57048309    
 -0.330799997       1.87605906      -0.00000000       1437.37769      -1.57048309    
 -0.623063982       1.80022705      -0.00000000       1437.75159      -1.57050896    
 -0.565632999       1.81908906      -0.00000000       1437.75159      -1.57050896    
   0.00000000       0.00000000       0.00000000       1437.75159      -1.57050896    
 -0.679867983       1.77955198      -0.00000000       1437.75159      -1.57050896    
 -0.845947027       1.70686805      -0.00000000       1449.72705      -1.57055104    
 -0.791365981       1.73284900      -0.00000000       1449.72705      -1.57055104    
   0.00000000       0.00000000       0.00000000       1449.72705      -1.57055104    
 -0.899676025       1.67916906      -0.00000000       1449.72705      -1.57055104    
   0.00000000       0.00000000       0.00000000       1441.76953      -1.57052779    
 -0.791365981       1.73284900      -0.00000000       1441.76953      -1.57052779    
 -0.735987008       1.75708497      -0.00000000       1441.76953      -1.57052779    
 -0.679867983       1.77955198      -0.00000000       1441.76953      -1.57052779    
 -0.952499986       1.64977801      -0.00000000       1461.56970      -1.57057881    
 -0.899676025       1.67916906      -0.00000000       1461.56970      -1.57057881    
   0.00000000       0.00000000       0.00000000       1461.56970      -1.57057881    
  -1.00436401       1.61872697      -0.00000000       1461.56970      -1.57057881    
  -1.15368605       1.51592600      -0.00000000       1489.24512      -1.57064319    
  -1.10500801       1.55176699      -0.00000000       1489.24512      -1.57064319    
   0.00000000       0.00000000       0.00000000       1489.24512      -1.57064319    
  -1.20120299       1.47855902      -0.00000000       1489.24512      -1.57064319    
   0.00000000       0.00000000       0.00000000       1475.87097      -1.57061028    
  -1.10500801       1.55176699      -0.00000000       1475.87097      -1.57061028    
  -1.05521798       1.58604598      -0.00000000       1475.87097      -1.57061028    
  -1.00436401       1.61872697      -0.00000000       1475.87097      -1.57061028    
  -1.24750996       1.43970299      -0.00000000       1495.18542      -1.57067633    
  -1.20120299       1.47855902      -0.00000000       1495.18542      -1.57067633    
   0.00000000       0.00000000       0.00000000       1495.18542      -1.57067633    
  -1.29255998       1.39939702      -0.00000000       1495.18542      -1.57067633    
  -1.41972899       1.27019501      -0.00000000       1367.73218      -1.57070386    
  -1.37871301       1.31459999      -0.00000000       1367.73218      -1.57070386    
   0.00000000       0.00000000       0.00000000       1367.73218      -1.57070386    
  -1.45931494       1.22450995      -0.00000000       1367.73218      -1.57070386    
   0.00000000       0.00000000       0.00000000       1466.20642      -1.57070041    
  -1.37871301       1.31459999      -0.00000000       1466.20642      -1.57070041    
  -1.33631003       1.35768199      -0.00000000       1466.20642      -1.57070041    
  -1.29255998       1.39939702      -0.00000000       1466.20642      -1.57070041    
  -1.49743104       1.17759299      -0.00000000       1234.40125      -1.57069647    
  -1.45931494       1.22450995      -0.00000000       1234.40125      -1.57069647    
   0.00000000       0.00000000       0.00000000       1234.40125      -1.57069647    
  -1.53403997       1.12949002      -0.00000000       1234.40125      -1.57069647    
  -1.63445795      0.978555024      -0.00000000       959.577209      -1.57068157    
  -1.60258806       1.02992105      -0.00000000       959.577209      -1.57068157    
   0.00000000       0.00000000       0.00000000       959.577209      -1.57068157    
  -1.66468298      0.926204979      -0.00000000       959.577209      -1.57068157    
   0.00000000       0.00000000       0.00000000       1096.03455      -1.57068777    
  -1.60258806       1.02992105      -0.00000000       1096.03455      -1.57068777    
  -1.56910396       1.08024895      -0.00000000       1096.03455      -1.57068777    
  -1.53403997       1.12949002      -0.00000000       1096.03455      -1.57068777    
  -1.69323206      0.872922003      -0.00000000       829.103760      -1.57067919    
  -1.66468298      0.926204979      -0.00000000       829.103760      -1.57067919    
   0.00000000       0.00000000       0.00000000       829.103760      -1.57067919    
  -1.72007501      0.818759024      -0.00000000       829.103760      -1.57067919    
  -1.79011405      0.651548028      -0.00000000       586.820801      -1.57069671    
  -1.76854098      0.708016992      -0.00000000       586.820801      -1.57069671    
   0.00000000       0.00000000       0.00000000       586.820801      -1.57069671    
  -1.80988598      0.594424009      -0.00000000       586.820801      -1.57069671    
   0.00000000       0.00000000       0.00000000       705.016052      -1.57068372    
  -1.76854098      0.708016992      -0.00000000       705.016052      -1.57068372    
  -1.74518704      0.763773024      -0.00000000       705.016052      -1.57068372    
  -1.72007501      0.818759024      -0.00000000       705.016052      -1.57068372    
  -1.82783401      0.536701024      -0.00000000       473.611389      -1.57072389    
  -1.80988598      0.594424009      -0.00000000       473.611389      -1.57072389    
   0.00000000       0.00000000       0.00000000       473.611389      -1.57072389    
  -1.84394205      0.478437006      -0.00000000       473.611389      -1.57072389    
  -1.88107097      0.300992996      -0.00000000       256.997864      -1.57087731    
  -1.87057400      0.360523999      -0.00000000       256.997864      -1.57087731    
   0.00000000       0.00000000       0.00000000       256.997864      -1.57087731    
  -1.88967395      0.241159007      -0.00000000       256.997864      -1.57087731    
   0.00000000       0.00000000       0.00000000       364.031311      -1.57077527    
  -1.87057400      0.360523999      -0.00000000       364.031311      -1.57077527    
  -1.85819399      0.419692010      -0.00000000       364.031311      -1.57077527    
  -1.84394205      0.478437006      -0.00000000       364.031311      -1.57077527    
  -1.89637399      0.181081995      -0.00000000       151.280792      -1.57112515    
  -1.88967395      0.241159007      -0.00000000       151.280792      -1.57112515    
   0.00000000       0.00000000       0.00000000       151.280792      -1.57112515    
  -1.90116501      0.120823003      -0.00000000       151.280792      -1.57112515    
  -1.90404105      -6.04420006E-02  -0.00000000       57.1571693       1.57272708    
  -1.90499997       0.00000000      -0.00000000       57.1571693       1.57272708    
   0.00000000       0.00000000       0.00000000       57.1571693       1.57272708    
  -1.90116501     -0.120823003      -0.00000000       57.1571693       1.57272708    
   0.00000000       0.00000000       0.00000000       46.8967133      -1.57250440    
  -1.90499997       0.00000000      -0.00000000       46.8967133      -1.57250440    
  -1.90404105       6.04420006E-02  -0.00000000       46.8967133      -1.57250440    
  -1.90116501      0.120823003      -0.00000000       46.8967133      -1.57250440    
  -1.89637399     -0.181081995      -0.00000000       162.004074       1.57166159    
  -1.90116501     -0.120823003      -0.00000000       162.004074       1.57166159    
   0.00000000       0.00000000       0.00000000       162.004074       1.57166159    
  -1.88967395     -0.241159007      -0.00000000       162.004074       1.57166159    
  -1.85819399     -0.419692010      -0.00000000       375.612457       1.57132220    
  -1.87057400     -0.360523999      -0.00000000       375.612457       1.57132220    
   0.00000000       0.00000000       0.00000000       375.612457       1.57132220    
  -1.84394205     -0.478437006      -0.00000000       375.612457       1.57132220    
   0.00000000       0.00000000       0.00000000       268.077209       1.57142770    
  -1.87057400     -0.360523999      -0.00000000       268.077209       1.57142770    
  -1.88107097     -0.300992996      -0.00000000       268.077209       1.57142770    
  -1.88967395     -0.241159007      -0.00000000       268.077209       1.57142770    
  -1.82783401     -0.536701024      -0.00000000       486.220001       1.57125604    
  -1.84394205     -0.478437006      -0.00000000       486.220001       1.57125604    
   0.00000000       0.00000000       0.00000000       486.220001       1.57125604    
  -1.80988598     -0.594424009      -0.00000000       486.220001       1.57125604    
  -1.74518704     -0.763773024      -0.00000000       719.930847       1.57116926    
  -1.76854098     -0.708016992      -0.00000000       719.930847       1.57116926    
   0.00000000       0.00000000       0.00000000       719.930847       1.57116926    
  -1.72007501     -0.818759024      -0.00000000       719.930847       1.57116926    
   0.00000000       0.00000000       0.00000000       600.637878       1.57120872    
  -1.76854098     -0.708016992      -0.00000000       600.637878       1.57120872    
  -1.79011405     -0.651548028      -0.00000000       600.637878       1.57120872    
  -1.80988598     -0.594424009      -0.00000000       600.637878       1.57120872    
  -1.69323206     -0.872922003      -0.00000000       845.068726       1.57113409    
  -1.72007501     -0.818759024      -0.00000000       845.068726       1.57113409    
   0.00000000       0.00000000       0.00000000       845.068726       1.57113409    
  -1.66468298     -0.926204979      -0.00000000       845.068726       1.57113409    
  -1.56910396      -1.08024895      -0.00000000       1110.25513       1.57107294    
  -1.60258806      -1.02992105      -0.00000000       1110.25513       1.57107294    
   0.00000000       0.00000000       0.00000000       1110.25513       1.57107294    
  -1.53403997      -1.12949002      -0.00000000       1110.25513       1.57107294    
   0.00000000       0.00000000       0.00000000       975.842529       1.57110202    
  -1.60258806      -1.02992105      -0.00000000       975.842529       1.57110202    
  -1.63445795     -0.978555024      -0.00000000       975.842529       1.57110202    
  -1.66468298     -0.926204979      -0.00000000       975.842529       1.57110202    
  -1.49743104      -1.17759299      -0.00000000       1244.82825       1.57104707    
  -1.53403997      -1.12949002      -0.00000000       1244.82825       1.57104707    
   0.00000000       0.00000000       0.00000000       1244.82825       1.57104707    
  -1.45931494      -1.22450995      -0.00000000       1244.82825       1.57104707    
  -1.33631003      -1.35768199      -0.00000000       1466.75940       1.57102191    
  -1.37871301      -1.31459999      -0.00000000       1466.75940       1.57102191    
   0.00000000       0.00000000       0.00000000       1466.75940       1.57102191    
  -1.29255998      -1.39939702      -0.00000000       1466.75940       1.57102191    
   0.00000000       0.00000000       0.00000000       1372.94507       1.57102680    
  -1.37871301      -1.31459999      -0.00000000       1372.94507       1.57102680    
  -1.41972899      -1.27019501      -0.00000000       1372.94507       1.57102680    
  -1.45931494      -1.22450995      -0.00000000       1372.94507       1.57102680    
  -1.24750996      -1.43970299      -0.00000000       1491.37744       1.57104492    
  -1.29255998      -1.39939702      -0.00000000       1491.37744       1.57104492    
   0.00000000       0.00000000       0.00000000       1491.37744       1.57104492    
  -1.20120299      -1.47855902      -0.00000000       1491.37744       1.57104492    
  -1.05521798      -1.58604598      -0.00000000       1464.82520       1.57111609    
  -1.10500801      -1.55176699      -0.00000000       1464.82520       1.57111609    
   0.00000000       0.00000000       0.00000000       1464.82520       1.57111609    
  -1.00436401      -1.61872697      -0.00000000       1464.82520       1.57111609    
   0.00000000       0.00000000       0.00000000       1480.94568       1.57108045    
  -1.10500801      -1.55176699      -0.00000000       1480.94568       1.57108045    
  -1.15368605      -1.51592600      -0.00000000       1480.94568       1.57108045    
  -1.20120299      -1.47855902      -0.00000000       1480.94568       1.57108045    
 -0.952499986      -1.64977801      -0.00000000       1449.81030       1.57114923    
  -1.00436401      -1.61872697      -0.00000000       1449.81030       1.57114923    
   0.00000000       0.00000000       0.00000000       1449.81030       1.57114923    
 -0.899676025      -1.67916906      -0.00000000       1449.81030       1.57114923    
 -0.735987008      -1.75708497      -0.00000000       1433.11633       1.57120132    
 -0.791365981      -1.73284900      -0.00000000       1433.11633       1.57120132    
   0.00000000       0.00000000       0.00000000       1433.11633       1.57120132    
 -0.679867983      -1.77955198      -0.00000000       1433.11633       1.57120132    
   0.00000000       0.00000000       0.00000000       1439.20776       1.57117796    
 -0.791365981      -1.73284900      -0.00000000       1439.20776       1.57117796    
 -0.845947027      -1.70686805      -0.00000000       1439.20776       1.57117796    
 -0.899676025      -1.67916906      -0.00000000       1439.20776       1.57117796    
 -0.623063982      -1.80022705      -0.00000000       1431.15295       1.57121992    
 -0.679867983      -1.77955198      -0.00000000       1431.15295       1.57121992    
   0.00000000       0.00000000       0.00000000       1431.15295       1.57121992    
 -0.565632999      -1.81908906      -0.00000000       1431.15295       1.57121992    
 -0.390157014      -1.86461902      -0.00000000       1435.13782       1.57124376    
 -0.449120998      -1.85130095      -0.00000000       1435.13782       1.57124376    
   0.00000000       0.00000000       0.00000000       1435.13782       1.57124376    
 -0.330799997      -1.87605906      -0.00000000       1435.13782       1.57124376    
   0.00000000       0.00000000       0.00000000       1432.21484       1.57123363    
 -0.449120998      -1.85130095      -0.00000000       1432.21484       1.57123363    
 -0.507632971      -1.83611906      -0.00000000       1432.21484       1.57123363    
 -0.565632999      -1.81908906      -0.00000000       1432.21484       1.57123363    
 -0.271109998      -1.88560998      -0.00000000       1438.42407       1.57125032    
 -0.330799997      -1.87605906      -0.00000000       1438.42407       1.57125032    
   0.00000000       0.00000000       0.00000000       1438.42407       1.57125032    
 -0.211146995      -1.89326203      -0.00000000       1438.42407       1.57125032    
  -3.02249994E-02  -1.90476000      -0.00000000       1440.88867       1.57125664    
  -9.06440020E-02  -1.90284204      -0.00000000       1440.88867       1.57125664    
   0.00000000       0.00000000       0.00000000       1440.88867       1.57125664    
   3.02249994E-02  -1.90476000      -0.00000000       1440.88867       1.57125664    
   0.00000000       0.00000000       0.00000000       1440.37439       1.57125473    
  -9.06440020E-02  -1.90284204      -0.00000000       1440.37439       1.57125473    
 -0.150970995      -1.89900804      -0.00000000       1440.37439       1.57125473    
 -0.211146995      -1.89326203      -0.00000000       1440.37439       1.57125473    
   9.06440020E-02  -1.90284204      -0.00000000       1439.47742       1.57125700    
   3.02249994E-02  -1.90476000      -0.00000000       1439.47742       1.57125700    
   0.00000000       0.00000000       0.00000000       1439.47742       1.57125700    
  0.150970995      -1.89900804      -0.00000000       1439.47742       1.57125700    
  0.330799997      -1.87605906      -0.00000000       1431.56836       1.57125068    
  0.271109998      -1.88560998      -0.00000000       1431.56836       1.57125068    
   0.00000000       0.00000000       0.00000000       1431.56836       1.57125068    
  0.390157014      -1.86461902      -0.00000000       1431.56836       1.57125068    
   0.00000000       0.00000000       0.00000000       1436.28857       1.57125485    
  0.271109998      -1.88560998      -0.00000000       1436.28857       1.57125485    
  0.211146995      -1.89326203      -0.00000000       1436.28857       1.57125485    
  0.150970995      -1.89900804      -0.00000000       1436.28857       1.57125485    
  0.449120998      -1.85130095      -0.00000000       1426.13525       1.57124364    
  0.390157014      -1.86461902      -0.00000000       1426.13525       1.57124364    
   0.00000000       0.00000000       0.00000000       1426.13525       1.57124364    
  0.507632971      -1.83611906      -0.00000000       1426.13525       1.57124364    
  0.679867983      -1.77955198      -0.00000000       1419.32117       1.57121849    
  0.623063982      -1.80022705      -0.00000000       1419.32117       1.57121849    
   0.00000000       0.00000000       0.00000000       1419.32117       1.57121849    
  0.735987008      -1.75708497      -0.00000000       1419.32117       1.57121849    
   0.00000000       0.00000000       0.00000000       1421.86096       1.57123303    
  0.623063982      -1.80022705      -0.00000000       1421.86096       1.57123303    
  0.565632999      -1.81908906      -0.00000000       1421.86096       1.57123303    
  0.507632971      -1.83611906      -0.00000000       1421.86096       1.57123303    
  0.791365981      -1.73284900      -0.00000000       1419.46313       1.57119942    
  0.735987008      -1.75708497      -0.00000000       1419.46313       1.57119942    
   0.00000000       0.00000000       0.00000000       1419.46313       1.57119942    
  0.845947027      -1.70686805      -0.00000000       1419.46313       1.57119942    
   1.00436401      -1.61872697      -0.00000000       1431.27759       1.57114697    
  0.952499986      -1.64977801      -0.00000000       1431.27759       1.57114697    
   0.00000000       0.00000000       0.00000000       1431.27759       1.57114697    
   1.05521798      -1.58604598      -0.00000000       1431.27759       1.57114697    
   0.00000000       0.00000000       0.00000000       1423.47009       1.57117558    
  0.952499986      -1.64977801      -0.00000000       1423.47009       1.57117558    
  0.899676025      -1.67916906      -0.00000000       1423.47009       1.57117558    
  0.845947027      -1.70686805      -0.00000000       1423.47009       1.57117558    
   1.10500801      -1.55176699      -0.00000000       1441.45532       1.57111442    
   1.05521798      -1.58604598      -0.00000000       1441.45532       1.57111442    
   0.00000000       0.00000000       0.00000000       1441.45532       1.57111442    
   1.15368605      -1.51592600      -0.00000000       1441.45532       1.57111442    
   1.29255998      -1.39939702      -0.00000000       1452.67249       1.57104552    
   1.24750996      -1.43970299      -0.00000000       1452.67249       1.57104552    
   0.00000000       0.00000000       0.00000000       1452.67249       1.57104552    
   1.33631003      -1.35768199      -0.00000000       1452.67249       1.57104552    
   0.00000000       0.00000000       0.00000000       1450.74146       1.57107997    
   1.24750996      -1.43970299      -0.00000000       1450.74146       1.57107997    
   1.20120299      -1.47855902      -0.00000000       1450.74146       1.57107997    