 VARIABLES="X" "Y" "Z" "abs(p) (Pa)" "angle(p) (rad)"
ZONE N=    802,E =     800, F=FEPOINT, ET=QUADRILATERAL
   1.90499997       0.00000000      -0.00000000       293.438599      -1.34995639    
   1.90404105      -6.04420006E-02  -0.00000000       293.438599      -1.34995639    
   0.00000000       0.00000000       0.00000000       293.438599      -1.34995639    
   1.90404105       6.04420006E-02  -0.00000000       293.438599      -1.34995639    
   1.88967395      0.241159007      -0.00000000       292.989349      -1.34978116    
   1.89637399      0.181081995      -0.00000000       292.989349      -1.34978116    
   0.00000000       0.00000000       0.00000000       292.989349      -1.34978116    
   1.88107097      0.300992996      -0.00000000       292.989349      -1.34978116    
   0.00000000       0.00000000       0.00000000       293.370972      -1.34991682    
   1.89637399      0.181081995      -0.00000000       293.370972      -1.34991682    
   1.90116501      0.120823003      -0.00000000       293.370972      -1.34991682    
   1.90404105       6.04420006E-02  -0.00000000       293.370972      -1.34991682    
   1.87057400      0.360523999      -0.00000000       292.412262      -1.34956121    
   1.88107097      0.300992996      -0.00000000       292.412262      -1.34956121    
   0.00000000       0.00000000       0.00000000       292.412262      -1.34956121    
   1.85819399      0.419692010      -0.00000000       292.412262      -1.34956121    
   1.80988598      0.594424009      -0.00000000       292.296814      -1.34909928    
   1.82783401      0.536701024      -0.00000000       292.296814      -1.34909928    
   0.00000000       0.00000000       0.00000000       292.296814      -1.34909928    
   1.79011405      0.651548028      -0.00000000       292.296814      -1.34909928    
   0.00000000       0.00000000       0.00000000       292.117401      -1.34932923    
   1.82783401      0.536701024      -0.00000000       292.117401      -1.34932923    
   1.84394205      0.478437006      -0.00000000       292.117401      -1.34932923    
   1.85819399      0.419692010      -0.00000000       292.117401      -1.34932923    
   1.76854098      0.708016992      -0.00000000       293.217743      -1.34888053    
   1.79011405      0.651548028      -0.00000000       293.217743      -1.34888053    
   0.00000000       0.00000000       0.00000000       293.217743      -1.34888053    
   1.74518704      0.763773024      -0.00000000       293.217743      -1.34888053    
   1.66468298      0.926204979      -0.00000000       297.941895      -1.34840822    
   1.69323206      0.872922003      -0.00000000       297.941895      -1.34840822    
   0.00000000       0.00000000       0.00000000       297.941895      -1.34840822    
   1.63445795      0.978555024      -0.00000000       297.941895      -1.34840822    
   0.00000000       0.00000000       0.00000000       295.098511      -1.34865630    
   1.69323206      0.872922003      -0.00000000       295.098511      -1.34865630    
   1.72007501      0.818759024      -0.00000000       295.098511      -1.34865630    
   1.74518704      0.763773024      -0.00000000       295.098511      -1.34865630    
   1.60258806       1.02992105      -0.00000000       301.395844      -1.34802198    
   1.63445795      0.978555024      -0.00000000       301.395844      -1.34802198    
   0.00000000       0.00000000       0.00000000       301.395844      -1.34802198    
   1.56910396       1.08024895      -0.00000000       301.395844      -1.34802198    
   1.45931494       1.22450995      -0.00000000       306.617523      -1.34601533    
   1.49743104       1.17759299      -0.00000000       306.617523      -1.34601533    
   0.00000000       0.00000000       0.00000000       306.617523      -1.34601533    
   1.41972899       1.27019501      -0.00000000       306.617523      -1.34601533    
   0.00000000       0.00000000       0.00000000       304.766357      -1.34732533    
   1.49743104       1.17759299      -0.00000000       304.766357      -1.34732533    
   1.53403997       1.12949002      -0.00000000       304.766357      -1.34732533    
   1.56910396       1.08024895      -0.00000000       304.766357      -1.34732533    
   1.37871301       1.31459999      -0.00000000       301.133972      -1.34294748    
   1.41972899       1.27019501      -0.00000000       301.133972      -1.34294748    
   0.00000000       0.00000000       0.00000000       301.133972      -1.34294748    
   1.33631003       1.35768199      -0.00000000       301.133972      -1.34294748    
   1.20120299       1.47855902      -0.00000000       253.397308      -1.32553720    
   1.24750996       1.43970299      -0.00000000       253.397308      -1.32553720    
   0.00000000       0.00000000       0.00000000       253.397308      -1.32553720    
   1.15368605       1.51592600      -0.00000000       253.397308      -1.32553720    
   0.00000000       0.00000000       0.00000000       280.969452      -1.33613431    
   1.24750996       1.43970299      -0.00000000       280.969452      -1.33613431    
   1.29255998       1.39939702      -0.00000000       280.969452      -1.33613431    
   1.33631003       1.35768199      -0.00000000       280.969452      -1.33613431    
   1.10500801       1.55176699      -0.00000000       224.789536      -1.31109393    
   1.15368605       1.51592600      -0.00000000       224.789536      -1.31109393    
   0.00000000       0.00000000       0.00000000       224.789536      -1.31109393    
   1.05521798       1.58604598      -0.00000000       224.789536      -1.31109393    
  0.899676025       1.67916906      -0.00000000       170.133224      -1.26561594    
  0.952499986       1.64977801      -0.00000000       170.133224      -1.26561594    
   0.00000000       0.00000000       0.00000000       170.133224      -1.26561594    
  0.845947027       1.70686805      -0.00000000       170.133224      -1.26561594    
   0.00000000       0.00000000       0.00000000       196.756699      -1.29167533    
  0.952499986       1.64977801      -0.00000000       196.756699      -1.29167533    
   1.00436401       1.61872697      -0.00000000       196.756699      -1.29167533    
   1.05521798       1.58604598      -0.00000000       196.756699      -1.29167533    
  0.791365981       1.73284900      -0.00000000       145.122635      -1.23006725    
  0.845947027       1.70686805      -0.00000000       145.122635      -1.23006725    
   0.00000000       0.00000000       0.00000000       145.122635      -1.23006725    
  0.735987008       1.75708497      -0.00000000       145.122635      -1.23006725    
  0.565632999       1.81908906      -0.00000000       99.8556213      -1.10771537    
  0.623063982       1.80022705      -0.00000000       99.8556213      -1.10771537    
   0.00000000       0.00000000       0.00000000       99.8556213      -1.10771537    
  0.507632971       1.83611906      -0.00000000       99.8556213      -1.10771537    
   0.00000000       0.00000000       0.00000000       121.707146      -1.18022668    
  0.623063982       1.80022705      -0.00000000       121.707146      -1.18022668    
  0.679867983       1.77955198      -0.00000000       121.707146      -1.18022668    
  0.735987008       1.75708497      -0.00000000       121.707146      -1.18022668    
  0.449120998       1.85130095      -0.00000000       79.6370010     -0.996341109    
  0.507632971       1.83611906      -0.00000000       79.6370010     -0.996341109    
   0.00000000       0.00000000       0.00000000       79.6370010     -0.996341109    
  0.390157014       1.86461902      -0.00000000       79.6370010     -0.996341109    
  0.211146995       1.89326203      -0.00000000       47.6090431     -0.507983387    
  0.271109998       1.88560998      -0.00000000       47.6090431     -0.507983387    
   0.00000000       0.00000000       0.00000000       47.6090431     -0.507983387    
  0.150970995       1.89900804      -0.00000000       47.6090431     -0.507983387    
   0.00000000       0.00000000       0.00000000       61.6686020     -0.815173149    
  0.271109998       1.88560998      -0.00000000       61.6686020     -0.815173149    
  0.330799997       1.87605906      -0.00000000       61.6686020     -0.815173149    
  0.390157014       1.86461902      -0.00000000       61.6686020     -0.815173149    
   9.06440020E-02   1.90284204      -0.00000000       41.2250748      -4.06456254E-02
  0.150970995       1.89900804      -0.00000000       41.2250748      -4.06456254E-02
   0.00000000       0.00000000       0.00000000       41.2250748      -4.06456254E-02
   3.02249994E-02   1.90476000      -0.00000000       41.2250748      -4.06456254E-02
 -0.150970995       1.89900804      -0.00000000       58.3084068      0.785841763    
  -9.06440020E-02   1.90284204      -0.00000000       58.3084068      0.785841763    
   0.00000000       0.00000000       0.00000000       58.3084068      0.785841763    
 -0.211146995       1.89326203      -0.00000000       58.3084068      0.785841763    
   0.00000000       0.00000000       0.00000000       45.5580711      0.447956741    
  -9.06440020E-02   1.90284204      -0.00000000       45.5580711      0.447956741    
  -3.02249994E-02   1.90476000      -0.00000000       45.5580711      0.447956741    
   3.02249994E-02   1.90476000      -0.00000000       45.5580711      0.447956741    
 -0.271109998       1.88560998      -0.00000000       75.4956741      0.986462891    
 -0.211146995       1.89326203      -0.00000000       75.4956741      0.986462891    
   0.00000000       0.00000000       0.00000000       75.4956741      0.986462891    
 -0.330799997       1.87605906      -0.00000000       75.4956741      0.986462891    
 -0.507632971       1.83611906      -0.00000000       116.002510       1.18609011    
 -0.449120998       1.85130095      -0.00000000       116.002510       1.18609011    
   0.00000000       0.00000000       0.00000000       116.002510       1.18609011    
 -0.565632999       1.81908906      -0.00000000       116.002510       1.18609011    
   0.00000000       0.00000000       0.00000000       94.9443283       1.10789120    
 -0.449120998       1.85130095      -0.00000000       94.9443283       1.10789120    
 -0.390157014       1.86461902      -0.00000000       94.9443283       1.10789120    
 -0.330799997       1.87605906      -0.00000000       94.9443283       1.10789120    
 -0.623063982       1.80022705      -0.00000000       138.363113       1.23900485    
 -0.565632999       1.81908906      -0.00000000       138.363113       1.23900485    
   0.00000000       0.00000000       0.00000000       138.363113       1.23900485    
 -0.679867983       1.77955198      -0.00000000       138.363113       1.23900485    
 -0.845947027       1.70686805      -0.00000000       187.294708       1.30336666    
 -0.791365981       1.73284900      -0.00000000       187.294708       1.30336666    
   0.00000000       0.00000000       0.00000000       187.294708       1.30336666    
 -0.899676025       1.67916906      -0.00000000       187.294708       1.30336666    
   0.00000000       0.00000000       0.00000000       162.091309       1.27632487    
 -0.791365981       1.73284900      -0.00000000       162.091309       1.27632487    
 -0.735987008       1.75708497      -0.00000000       162.091309       1.27632487    
 -0.679867983       1.77955198      -0.00000000       162.091309       1.27632487    
 -0.952499986       1.64977801      -0.00000000       213.832932       1.32326305    
 -0.899676025       1.67916906      -0.00000000       213.832932       1.32326305    
   0.00000000       0.00000000       0.00000000       213.832932       1.32326305    
  -1.00436401       1.61872697      -0.00000000       213.832932       1.32326305    
  -1.15368605       1.51592600      -0.00000000       268.885925       1.34882522    
  -1.10500801       1.55176699      -0.00000000       268.885925       1.34882522    
   0.00000000       0.00000000       0.00000000       268.885925       1.34882522    
  -1.20120299       1.47855902      -0.00000000       268.885925       1.34882522    
   0.00000000       0.00000000       0.00000000       241.284439       1.33796751    
  -1.10500801       1.55176699      -0.00000000       241.284439       1.33796751    
  -1.05521798       1.58604598      -0.00000000       241.284439       1.33796751    
  -1.00436401       1.61872697      -0.00000000       241.284439       1.33796751    
  -1.24750996       1.43970299      -0.00000000       295.185638       1.35680056    
  -1.20120299       1.47855902      -0.00000000       295.185638       1.35680056    
   0.00000000       0.00000000       0.00000000       295.185638       1.35680056    
  -1.29255998       1.39939702      -0.00000000       295.185638       1.35680056    
  -1.41972899       1.27019501      -0.00000000       319.660736       1.36557710    
  -1.37871301       1.31459999      -0.00000000       319.660736       1.36557710    
   0.00000000       0.00000000       0.00000000       319.660736       1.36557710    
  -1.45931494       1.22450995      -0.00000000       319.660736       1.36557710    
   0.00000000       0.00000000       0.00000000       314.500671       1.36227608    
  -1.37871301       1.31459999      -0.00000000       314.500671       1.36227608    
  -1.33631003       1.35768199      -0.00000000       314.500671       1.36227608    
  -1.29255998       1.39939702      -0.00000000       314.500671       1.36227608    
  -1.49743104       1.17759299      -0.00000000       317.579468       1.36778653    
  -1.45931494       1.22450995      -0.00000000       317.579468       1.36778653    
   0.00000000       0.00000000       0.00000000       317.579468       1.36778653    
  -1.53403997       1.12949002      -0.00000000       317.579468       1.36778653    
  -1.63445795      0.978555024      -0.00000000       311.311768       1.37088609    
  -1.60258806       1.02992105      -0.00000000       311.311768       1.37088609    
   0.00000000       0.00000000       0.00000000       311.311768       1.37088609    
  -1.66468298      0.926204979      -0.00000000       311.311768       1.37088609    
   0.00000000       0.00000000       0.00000000       314.309509       1.36950171    
  -1.60258806       1.02992105      -0.00000000       314.309509       1.36950171    
  -1.56910396       1.08024895      -0.00000000       314.309509       1.36950171    
  -1.53403997       1.12949002      -0.00000000       314.309509       1.36950171    
  -1.69323206      0.872922003      -0.00000000       309.259583       1.37203586    
  -1.66468298      0.926204979      -0.00000000       309.259583       1.37203586    
   0.00000000       0.00000000       0.00000000       309.259583       1.37203586    
  -1.72007501      0.818759024      -0.00000000       309.259583       1.37203586    
  -1.79011405      0.651548028      -0.00000000       308.135284       1.37375343    
  -1.76854098      0.708016992      -0.00000000       308.135284       1.37375343    
   0.00000000       0.00000000       0.00000000       308.135284       1.37375343    
  -1.80988598      0.594424009      -0.00000000       308.135284       1.37375343    
   0.00000000       0.00000000       0.00000000       308.244080       1.37298000    
  -1.76854098      0.708016992      -0.00000000       308.244080       1.37298000    
  -1.74518704      0.763773024      -0.00000000       308.244080       1.37298000    
  -1.72007501      0.818759024      -0.00000000       308.244080       1.37298000    
  -1.82783401      0.536701024      -0.00000000       308.691681       1.37438476    
  -1.80988598      0.594424009      -0.00000000       308.691681       1.37438476    
   0.00000000       0.00000000       0.00000000       308.691681       1.37438476    
  -1.84394205      0.478437006      -0.00000000       308.691681       1.37438476    
  -1.88107097      0.300992996      -0.00000000       310.726837       1.37527359    
  -1.87057400      0.360523999      -0.00000000       310.726837       1.37527359    
   0.00000000       0.00000000       0.00000000       310.726837       1.37527359    
  -1.88967395      0.241159007      -0.00000000       310.726837       1.37527359    
   0.00000000       0.00000000       0.00000000       309.664795       1.37489247    
  -1.87057400      0.360523999      -0.00000000       309.664795       1.37489247    
  -1.85819399      0.419692010      -0.00000000       309.664795       1.37489247    
  -1.84394205      0.478437006      -0.00000000       309.664795       1.37489247    
  -1.89637399      0.181081995      -0.00000000       311.513550       1.37551761    
  -1.88967395      0.241159007      -0.00000000       311.513550       1.37551761    
   0.00000000       0.00000000       0.00000000       311.513550       1.37551761    
  -1.90116501      0.120823003      -0.00000000       311.513550       1.37551761    
  -1.90404105      -6.04420006E-02  -0.00000000       312.034210       1.37563026    
  -1.90499997       0.00000000      -0.00000000       312.034210       1.37563026    
   0.00000000       0.00000000       0.00000000       312.034210       1.37563026    
  -1.90116501     -0.120823003      -0.00000000       312.034210       1.37563026    
   0.00000000       0.00000000       0.00000000       311.964569       1.37563539    
  -1.90499997       0.00000000      -0.00000000       311.964569       1.37563539    
  -1.90404105       6.04420006E-02  -0.00000000       311.964569       1.37563539    
  -1.90116501      0.120823003      -0.00000000       311.964569       1.37563539    
  -1.89637399     -0.181081995      -0.00000000       311.712677       1.37549925    
  -1.90116501     -0.120823003      -0.00000000       311.712677       1.37549925    
   0.00000000       0.00000000       0.00000000       311.712677       1.37549925    
  -1.88967395     -0.241159007      -0.00000000       311.712677       1.37549925    
  -1.85819399     -0.419692010      -0.00000000       310.248962       1.37485981    
  -1.87057400     -0.360523999      -0.00000000       310.248962       1.37485981    
   0.00000000       0.00000000       0.00000000       310.248962       1.37485981    
  -1.84394205     -0.478437006      -0.00000000       310.248962       1.37485981    
   0.00000000       0.00000000       0.00000000       311.054779       1.37524271    
  -1.87057400     -0.360523999      -0.00000000       311.054779       1.37524271    
  -1.88107097     -0.300992996      -0.00000000       311.054779       1.37524271    
  -1.88967395     -0.241159007      -0.00000000       311.054779       1.37524271    
  -1.82783401     -0.536701024      -0.00000000       309.732025       1.37436831    
  -1.84394205     -0.478437006      -0.00000000       309.732025       1.37436831    
   0.00000000       0.00000000       0.00000000       309.732025       1.37436831    
  -1.80988598     -0.594424009      -0.00000000       309.732025       1.37436831    
  -1.74518704     -0.763773024      -0.00000000       310.137787       1.37298596    
  -1.76854098     -0.708016992      -0.00000000       310.137787       1.37298596    
   0.00000000       0.00000000       0.00000000       310.137787       1.37298596    
  -1.72007501     -0.818759024      -0.00000000       310.137787       1.37298596    
   0.00000000       0.00000000       0.00000000       309.607117       1.37375081    
  -1.76854098     -0.708016992      -0.00000000       309.607117       1.37375081    
  -1.79011405     -0.651548028      -0.00000000       309.607117       1.37375081    
  -1.80988598     -0.594424009      -0.00000000       309.607117       1.37375081    
  -1.69323206     -0.872922003      -0.00000000       311.561310       1.37203646    
  -1.72007501     -0.818759024      -0.00000000       311.561310       1.37203646    
   0.00000000       0.00000000       0.00000000       311.561310       1.37203646    
  -1.66468298     -0.926204979      -0.00000000       311.561310       1.37203646    
  -1.56910396      -1.08024895      -0.00000000       316.725525       1.36947632    
  -1.60258806      -1.02992105      -0.00000000       316.725525       1.36947632    
   0.00000000       0.00000000       0.00000000       316.725525       1.36947632    
  -1.53403997      -1.12949002      -0.00000000       316.725525       1.36947632    
   0.00000000       0.00000000       0.00000000       313.860168       1.37088966    
  -1.60258806      -1.02992105      -0.00000000       313.860168       1.37088966    
  -1.63445795     -0.978555024      -0.00000000       313.860168       1.37088966    
  -1.66468298     -0.926204979      -0.00000000       313.860168       1.37088966    
  -1.49743104      -1.17759299      -0.00000000       319.478241       1.36769450    
  -1.53403997      -1.12949002      -0.00000000       319.478241       1.36769450    
   0.00000000       0.00000000       0.00000000       319.478241       1.36769450    
  -1.45931494      -1.22450995      -0.00000000       319.478241       1.36769450    
  -1.33631003      -1.35768199      -0.00000000       314.670624       1.36193120    
  -1.37871301      -1.31459999      -0.00000000       314.670624       1.36193120    
   0.00000000       0.00000000       0.00000000       314.670624       1.36193120    
  -1.29255998      -1.39939702      -0.00000000       314.670624       1.36193120    
   0.00000000       0.00000000       0.00000000       320.684784       1.36537504    
  -1.37871301      -1.31459999      -0.00000000       320.684784       1.36537504    
  -1.41972899      -1.27019501      -0.00000000       320.684784       1.36537504    
  -1.45931494      -1.22450995      -0.00000000       320.684784       1.36537504    
  -1.24750996      -1.43970299      -0.00000000       294.431732       1.35623837    
  -1.29255998      -1.39939702      -0.00000000       294.431732       1.35623837    
   0.00000000       0.00000000       0.00000000       294.431732       1.35623837    
  -1.20120299      -1.47855902      -0.00000000       294.431732       1.35623837    
  -1.05521798      -1.58604598      -0.00000000       238.726990       1.33657110    
  -1.10500801      -1.55176699      -0.00000000       238.726990       1.33657110    
   0.00000000       0.00000000       0.00000000       238.726990       1.33657110    
  -1.00436401      -1.61872697      -0.00000000       238.726990       1.33657110    
   0.00000000       0.00000000       0.00000000       267.090851       1.34791970    
  -1.10500801      -1.55176699      -0.00000000       267.090851       1.34791970    
  -1.15368605      -1.51592600      -0.00000000       267.090851       1.34791970    
  -1.20120299      -1.47855902      -0.00000000       267.090851       1.34791970    
 -0.952499986      -1.64977801      -0.00000000       210.886047       1.32124853    
  -1.00436401      -1.61872697      -0.00000000       210.886047       1.32124853    
   0.00000000       0.00000000       0.00000000       210.886047       1.32124853    
 -0.899676025      -1.67916906      -0.00000000       210.886047       1.32124853    
 -0.735987008      -1.75708497      -0.00000000       159.423401       1.27277720    
 -0.791365981      -1.73284900      -0.00000000       159.423401       1.27277720    
   0.00000000       0.00000000       0.00000000       159.423401       1.27277720    
 -0.679867983      -1.77955198      -0.00000000       159.423401       1.27277720    
   0.00000000       0.00000000       0.00000000       184.385681       1.30067039    
 -0.791365981      -1.73284900      -0.00000000       184.385681       1.30067039    
 -0.845947027      -1.70686805      -0.00000000       184.385681       1.30067039    
 -0.899676025      -1.67916906      -0.00000000       184.385681       1.30067039    
 -0.623063982      -1.80022705      -0.00000000       135.933853       1.23421645    
 -0.679867983      -1.77955198      -0.00000000       135.933853       1.23421645    
   0.00000000       0.00000000       0.00000000       135.933853       1.23421645    
 -0.565632999      -1.81908906      -0.00000000       135.933853       1.23421645    
 -0.390157014      -1.86461902      -0.00000000       93.0278931       1.09821391    
 -0.449120998      -1.85130095      -0.00000000       93.0278931       1.09821391    
   0.00000000       0.00000000       0.00000000       93.0278931       1.09821391    
 -0.330799997      -1.87605906      -0.00000000       93.0278931       1.09821391    
   0.00000000       0.00000000       0.00000000       113.826149       1.17944992    
 -0.449120998      -1.85130095      -0.00000000       113.826149       1.17944992    
 -0.507632971      -1.83611906      -0.00000000       113.826149       1.17944992    
 -0.565632999      -1.81908906      -0.00000000       113.826149       1.17944992    
 -0.271109998      -1.88560998      -0.00000000       73.8029785      0.971525192    
 -0.330799997      -1.87605906      -0.00000000       73.8029785      0.971525192    
   0.00000000       0.00000000       0.00000000       73.8029785      0.971525192    
 -0.211146995      -1.89326203      -0.00000000       73.8029785      0.971525192    
  -3.02249994E-02  -1.90476000      -0.00000000       44.7715988      0.409420222    
  -9.06440020E-02  -1.90284204      -0.00000000       44.7715988      0.409420222    
   0.00000000       0.00000000       0.00000000       44.7715988      0.409420222    
   3.02249994E-02  -1.90476000      -0.00000000       44.7715988      0.409420222    
   0.00000000       0.00000000       0.00000000       56.9263687      0.761427402    
  -9.06440020E-02  -1.90284204      -0.00000000       56.9263687      0.761427402    
 -0.150970995      -1.89900804      -0.00000000       56.9263687      0.761427402    
 -0.211146995      -1.89326203      -0.00000000       56.9263687      0.761427402    
   9.06440020E-02  -1.90284204      -0.00000000       41.3721733      -8.70141760E-02
   3.02249994E-02  -1.90476000      -0.00000000       41.3721733      -8.70141760E-02
   0.00000000       0.00000000       0.00000000       41.3721733      -8.70141760E-02
  0.150970995      -1.89900804      -0.00000000       41.3721733      -8.70141760E-02
  0.330799997      -1.87605906      -0.00000000       63.2299881     -0.837063193    
  0.271109998      -1.88560998      -0.00000000       63.2299881     -0.837063193    
   0.00000000       0.00000000       0.00000000       63.2299881     -0.837063193    
  0.390157014      -1.86461902      -0.00000000       63.2299881     -0.837063193    
   0.00000000       0.00000000       0.00000000       48.6477547     -0.543558240    
  0.271109998      -1.88560998      -0.00000000       48.6477547     -0.543558240    
  0.211146995      -1.89326203      -0.00000000       48.6477547     -0.543558240    
  0.150970995      -1.89900804      -0.00000000       48.6477547     -0.543558240    
  0.449120998      -1.85130095      -0.00000000       81.5317917      -1.01004386    
  0.390157014      -1.86461902      -0.00000000       81.5317917      -1.01004386    
   0.00000000       0.00000000       0.00000000       81.5317917      -1.01004386    
  0.507632971      -1.83611906      -0.00000000       81.5317917      -1.01004386    
  0.679867983      -1.77955198      -0.00000000       124.236000      -1.18671989    
  0.623063982      -1.80022705      -0.00000000       124.236000      -1.18671989    
   0.00000000       0.00000000       0.00000000       124.236000      -1.18671989    
  0.735987008      -1.75708497      -0.00000000       124.236000      -1.18671989    
   0.00000000       0.00000000       0.00000000       102.079468      -1.11688185    
  0.623063982      -1.80022705      -0.00000000       102.079468      -1.11688185    
  0.565632999      -1.81908906      -0.00000000       102.079468      -1.11688185    
  0.507632971      -1.83611906      -0.00000000       102.079468      -1.11688185    
  0.791365981      -1.73284900      -0.00000000       147.944748      -1.23484027    
  0.735987008      -1.75708497      -0.00000000       147.944748      -1.23484027    
   0.00000000       0.00000000       0.00000000       147.944748      -1.23484027    
  0.845947027      -1.70686805      -0.00000000       147.944748      -1.23484027    
   1.00436401      -1.61872697      -0.00000000       199.899719      -1.29434168    
  0.952499986      -1.64977801      -0.00000000       199.899719      -1.29434168    
   0.00000000       0.00000000       0.00000000       199.899719      -1.29434168    
   1.05521798      -1.58604598      -0.00000000       199.899719      -1.29434168    
   0.00000000       0.00000000       0.00000000       173.214996      -1.26920772    
  0.952499986      -1.64977801      -0.00000000       173.214996      -1.26920772    
  0.899676025      -1.67916906      -0.00000000       173.214996      -1.26920772    
  0.845947027      -1.70686805      -0.00000000       173.214996      -1.26920772    
   1.10500801      -1.55176699      -0.00000000       227.558701      -1.31291783    
   1.05521798      -1.58604598      -0.00000000       227.558701      -1.31291783    
   0.00000000       0.00000000       0.00000000       227.558701      -1.31291783    
   1.15368605      -1.51592600      -0.00000000       227.558701      -1.31291783    
   1.29255998      -1.39939702      -0.00000000       281.925110      -1.33679342    
   1.24750996      -1.43970299      -0.00000000       281.925110      -1.33679342    
   0.00000000       0.00000000       0.00000000       281.925110      -1.33679342    
   1.33631003      -1.35768199      -0.00000000       281.925110      -1.33679342    
   0.00000000       0.00000000       0.00000000       255.404449      -1.32668567    
   1.24750996      -1.43970299      -0.00000000       255.404449      -1.32668567    
   1.20120299      -1.47855902      -0.00000000       255.404449      -1.32668567    