 VARIABLES="X" "Y" "Z" "abs(p) (Pa)" "angle(p) (rad)"
ZONE N=    802,E =     800, F=FEPOINT, ET=QUADRILATERAL
   1.90499997       0.00000000      -0.00000000       6.34420013      -1.60984850    
   1.90404105      -6.04420006E-02  -0.00000000       6.34420013      -1.60984850    
   0.00000000       0.00000000       0.00000000       6.34420013      -1.60984850    
   1.90404105       6.04420006E-02  -0.00000000       6.34420013      -1.60984850    
   1.88967395      0.241159007      -0.00000000       338.799164      -1.56863964    
   1.89637399      0.181081995      -0.00000000       338.799164      -1.56863964    
   0.00000000       0.00000000       0.00000000       338.799164      -1.56863964    
   1.88107097      0.300992996      -0.00000000       338.799164      -1.56863964    
   0.00000000       0.00000000       0.00000000       171.805420      -1.56936634    
   1.89637399      0.181081995      -0.00000000       171.805420      -1.56936634    
   1.90116501      0.120823003      -0.00000000       171.805420      -1.56936634    
   1.90404105       6.04420006E-02  -0.00000000       171.805420      -1.56936634    
   1.87057400      0.360523999      -0.00000000       508.417480      -1.56844318    
   1.88107097      0.300992996      -0.00000000       508.417480      -1.56844318    
   0.00000000       0.00000000       0.00000000       508.417480      -1.56844318    
   1.85819399      0.419692010      -0.00000000       508.417480      -1.56844318    
   1.80988598      0.594424009      -0.00000000       863.158081      -1.56845295    
   1.82783401      0.536701024      -0.00000000       863.158081      -1.56845295    
   0.00000000       0.00000000       0.00000000       863.158081      -1.56845295    
   1.79011405      0.651548028      -0.00000000       863.158081      -1.56845295    
   0.00000000       0.00000000       0.00000000       683.029785      -1.56841040    
   1.82783401      0.536701024      -0.00000000       683.029785      -1.56841040    
   1.84394205      0.478437006      -0.00000000       683.029785      -1.56841040    
   1.85819399      0.419692010      -0.00000000       683.029785      -1.56841040    
   1.76854098      0.708016992      -0.00000000       1050.99854      -1.56855381    
   1.79011405      0.651548028      -0.00000000       1050.99854      -1.56855381    
   0.00000000       0.00000000       0.00000000       1050.99854      -1.56855381    
   1.74518704      0.763773024      -0.00000000       1050.99854      -1.56855381    
   1.66468298      0.926204979      -0.00000000       1454.89539      -1.56887233    
   1.69323206      0.872922003      -0.00000000       1454.89539      -1.56887233    
   0.00000000       0.00000000       0.00000000       1454.89539      -1.56887233    
   1.63445795      0.978555024      -0.00000000       1454.89539      -1.56887233    
   0.00000000       0.00000000       0.00000000       1248.48560      -1.56870008    
   1.69323206      0.872922003      -0.00000000       1248.48560      -1.56870008    
   1.72007501      0.818759024      -0.00000000       1248.48560      -1.56870008    
   1.74518704      0.763773024      -0.00000000       1248.48560      -1.56870008    
   1.60258806       1.02992105      -0.00000000       1667.54663      -1.56905782    
   1.63445795      0.978555024      -0.00000000       1667.54663      -1.56905782    
   0.00000000       0.00000000       0.00000000       1667.54663      -1.56905782    
   1.56910396       1.08024895      -0.00000000       1667.54663      -1.56905782    
   1.45931494       1.22450995      -0.00000000       2083.58081      -1.56937754    
   1.49743104       1.17759299      -0.00000000       2083.58081      -1.56937754    
   0.00000000       0.00000000       0.00000000       2083.58081      -1.56937754    
   1.41972899       1.27019501      -0.00000000       2083.58081      -1.56937754    
   0.00000000       0.00000000       0.00000000       1880.80261      -1.56923485    
   1.49743104       1.17759299      -0.00000000       1880.80261      -1.56923485    
   1.53403997       1.12949002      -0.00000000       1880.80261      -1.56923485    
   1.56910396       1.08024895      -0.00000000       1880.80261      -1.56923485    
   1.37871301       1.31459999      -0.00000000       2233.12500      -1.56936884    
   1.41972899       1.27019501      -0.00000000       2233.12500      -1.56936884    
   0.00000000       0.00000000       0.00000000       2233.12500      -1.56936884    
   1.33631003       1.35768199      -0.00000000       2233.12500      -1.56936884    
   1.20120299       1.47855902      -0.00000000       2260.93164      -1.56863487    
   1.24750996       1.43970299      -0.00000000       2260.93164      -1.56863487    
   0.00000000       0.00000000       0.00000000       2260.93164      -1.56863487    
   1.15368605       1.51592600      -0.00000000       2260.93164      -1.56863487    
   0.00000000       0.00000000       0.00000000       2274.75464      -1.56906915    
   1.24750996       1.43970299      -0.00000000       2274.75464      -1.56906915    
   1.29255998       1.39939702      -0.00000000       2274.75464      -1.56906915    
   1.33631003       1.35768199      -0.00000000       2274.75464      -1.56906915    
   1.10500801       1.55176699      -0.00000000       2237.95020      -1.56819975    
   1.15368605       1.51592600      -0.00000000       2237.95020      -1.56819975    
   0.00000000       0.00000000       0.00000000       2237.95020      -1.56819975    
   1.05521798       1.58604598      -0.00000000       2237.95020      -1.56819975    
  0.899676025       1.67916906      -0.00000000       2203.55054      -1.56745434    
  0.952499986       1.64977801      -0.00000000       2203.55054      -1.56745434    
   0.00000000       0.00000000       0.00000000       2203.55054      -1.56745434    
  0.845947027       1.70686805      -0.00000000       2203.55054      -1.56745434    
   0.00000000       0.00000000       0.00000000       2217.11816      -1.56779933    
  0.952499986       1.64977801      -0.00000000       2217.11816      -1.56779933    
   1.00436401       1.61872697      -0.00000000       2217.11816      -1.56779933    
   1.05521798       1.58604598      -0.00000000       2217.11816      -1.56779933    
  0.791365981       1.73284900      -0.00000000       2198.12378      -1.56717145    
  0.845947027       1.70686805      -0.00000000       2198.12378      -1.56717145    
   0.00000000       0.00000000       0.00000000       2198.12378      -1.56717145    
  0.735987008       1.75708497      -0.00000000       2198.12378      -1.56717145    
  0.565632999       1.81908906      -0.00000000       2206.17407      -1.56678164    
  0.623063982       1.80022705      -0.00000000       2206.17407      -1.56678164    
   0.00000000       0.00000000       0.00000000       2206.17407      -1.56678164    
  0.507632971       1.83611906      -0.00000000       2206.17407      -1.56678164    
   0.00000000       0.00000000       0.00000000       2199.60864      -1.56694877    
  0.623063982       1.80022705      -0.00000000       2199.60864      -1.56694877    
  0.679867983       1.77955198      -0.00000000       2199.60864      -1.56694877    
  0.735987008       1.75708497      -0.00000000       2199.60864      -1.56694877    
  0.449120998       1.85130095      -0.00000000       2215.99658      -1.56666338    
  0.507632971       1.83611906      -0.00000000       2215.99658      -1.56666338    
   0.00000000       0.00000000       0.00000000       2215.99658      -1.56666338    
  0.390157014       1.86461902      -0.00000000       2215.99658      -1.56666338    
  0.211146995       1.89326203      -0.00000000       2235.16626      -1.56653595    
  0.271109998       1.88560998      -0.00000000       2235.16626      -1.56653595    
   0.00000000       0.00000000       0.00000000       2235.16626      -1.56653595    
  0.150970995       1.89900804      -0.00000000       2235.16626      -1.56653595    
   0.00000000       0.00000000       0.00000000       2226.57837      -1.56658423    
  0.271109998       1.88560998      -0.00000000       2226.57837      -1.56658423    
  0.330799997       1.87605906      -0.00000000       2226.57837      -1.56658423    
  0.390157014       1.86461902      -0.00000000       2226.57837      -1.56658423    
   9.06440020E-02   1.90284204      -0.00000000       2241.24194      -1.56651366    
  0.150970995       1.89900804      -0.00000000       2241.24194      -1.56651366    
   0.00000000       0.00000000       0.00000000       2241.24194      -1.56651366    
   3.02249994E-02   1.90476000      -0.00000000       2241.24194      -1.56651366    
 -0.150970995       1.89900804      -0.00000000       2244.87695      -1.56654680    
  -9.06440020E-02   1.90284204      -0.00000000       2244.87695      -1.56654680    
   0.00000000       0.00000000       0.00000000       2244.87695      -1.56654680    
 -0.211146995       1.89326203      -0.00000000       2244.87695      -1.56654680    
   0.00000000       0.00000000       0.00000000       2244.49878      -1.56651771    
  -9.06440020E-02   1.90284204      -0.00000000       2244.49878      -1.56651771    
  -3.02249994E-02   1.90476000      -0.00000000       2244.49878      -1.56651771    
   3.02249994E-02   1.90476000      -0.00000000       2244.49878      -1.56651771    
 -0.271109998       1.88560998      -0.00000000       2242.77148      -1.56660330    
 -0.211146995       1.89326203      -0.00000000       2242.77148      -1.56660330    
   0.00000000       0.00000000       0.00000000       2242.77148      -1.56660330    
 -0.330799997       1.87605906      -0.00000000       2242.77148      -1.56660330    
 -0.507632971       1.83611906      -0.00000000       2238.93359      -1.56682467    
 -0.449120998       1.85130095      -0.00000000       2238.93359      -1.56682467    
   0.00000000       0.00000000       0.00000000       2238.93359      -1.56682467    
 -0.565632999       1.81908906      -0.00000000       2238.93359      -1.56682467    
   0.00000000       0.00000000       0.00000000       2239.65894      -1.56669152    
 -0.449120998       1.85130095      -0.00000000       2239.65894      -1.56669152    
 -0.390157014       1.86461902      -0.00000000       2239.65894      -1.56669152    
 -0.330799997       1.87605906      -0.00000000       2239.65894      -1.56669152    
 -0.623063982       1.80022705      -0.00000000       2241.44312      -1.56700385    
 -0.565632999       1.81908906      -0.00000000       2241.44312      -1.56700385    
   0.00000000       0.00000000       0.00000000       2241.44312      -1.56700385    
 -0.679867983       1.77955198      -0.00000000       2241.44312      -1.56700385    
 -0.845947027       1.70686805      -0.00000000       2264.17993      -1.56752789    
 -0.791365981       1.73284900      -0.00000000       2264.17993      -1.56752789    
   0.00000000       0.00000000       0.00000000       2264.17993      -1.56752789    
 -0.899676025       1.67916906      -0.00000000       2264.17993      -1.56752789    
   0.00000000       0.00000000       0.00000000       2249.25146      -1.56723714    
 -0.791365981       1.73284900      -0.00000000       2249.25146      -1.56723714    
 -0.735987008       1.75708497      -0.00000000       2249.25146      -1.56723714    
 -0.679867983       1.77955198      -0.00000000       2249.25146      -1.56723714    
 -0.952499986       1.64977801      -0.00000000       2286.09326      -1.56787252    
 -0.899676025       1.67916906      -0.00000000       2286.09326      -1.56787252    
   0.00000000       0.00000000       0.00000000       2286.09326      -1.56787252    
  -1.00436401       1.61872697      -0.00000000       2286.09326      -1.56787252    
  -1.15368605       1.51592600      -0.00000000       2338.13110      -1.56867814    
  -1.10500801       1.55176699      -0.00000000       2338.13110      -1.56867814    
   0.00000000       0.00000000       0.00000000       2338.13110      -1.56867814    
  -1.20120299       1.47855902      -0.00000000       2338.13110      -1.56867814    
   0.00000000       0.00000000       0.00000000       2312.53296      -1.56826270    
  -1.10500801       1.55176699      -0.00000000       2312.53296      -1.56826270    
  -1.05521798       1.58604598      -0.00000000       2312.53296      -1.56826270    
  -1.00436401       1.61872697      -0.00000000       2312.53296      -1.56826270    
  -1.24750996       1.43970299      -0.00000000       2351.67554      -1.56908798    
  -1.20120299       1.47855902      -0.00000000       2351.67554      -1.56908798    
   0.00000000       0.00000000       0.00000000       2351.67554      -1.56908798    
  -1.29255998       1.39939702      -0.00000000       2351.67554      -1.56908798    
  -1.41972899       1.27019501      -0.00000000       2154.04810      -1.56935871    
  -1.37871301       1.31459999      -0.00000000       2154.04810      -1.56935871    
   0.00000000       0.00000000       0.00000000       2154.04810      -1.56935871    
  -1.45931494       1.22450995      -0.00000000       2154.04810      -1.56935871    
   0.00000000       0.00000000       0.00000000       2308.78906      -1.56936860    
  -1.37871301       1.31459999      -0.00000000       2308.78906      -1.56936860    
  -1.33631003       1.35768199      -0.00000000       2308.78906      -1.56936860    
  -1.29255998       1.39939702      -0.00000000       2308.78906      -1.56936860    
  -1.49743104       1.17759299      -0.00000000       1942.98669      -1.56918848    
  -1.45931494       1.22450995      -0.00000000       1942.98669      -1.56918848    
   0.00000000       0.00000000       0.00000000       1942.98669      -1.56918848    
  -1.53403997       1.12949002      -0.00000000       1942.98669      -1.56918848    
  -1.63445795      0.978555024      -0.00000000       1507.53357      -1.56877005    
  -1.60258806       1.02992105      -0.00000000       1507.53357      -1.56877005    
   0.00000000       0.00000000       0.00000000       1507.53357      -1.56877005    
  -1.66468298      0.926204979      -0.00000000       1507.53357      -1.56877005    
   0.00000000       0.00000000       0.00000000       1723.46436      -1.56898236    
  -1.60258806       1.02992105      -0.00000000       1723.46436      -1.56898236    
  -1.56910396       1.08024895      -0.00000000       1723.46436      -1.56898236    
  -1.53403997       1.12949002      -0.00000000       1723.46436      -1.56898236    
  -1.69323206      0.872922003      -0.00000000       1301.33496      -1.56857848    
  -1.66468298      0.926204979      -0.00000000       1301.33496      -1.56857848    
   0.00000000       0.00000000       0.00000000       1301.33496      -1.56857848    
  -1.72007501      0.818759024      -0.00000000       1301.33496      -1.56857848    
  -1.79011405      0.651548028      -0.00000000       920.556824      -1.56829727    
  -1.76854098      0.708016992      -0.00000000       920.556824      -1.56829727    
   0.00000000       0.00000000       0.00000000       920.556824      -1.56829727    
  -1.80988598      0.594424009      -0.00000000       920.556824      -1.56829727    
   0.00000000       0.00000000       0.00000000       1106.05847      -1.56841683    
  -1.76854098      0.708016992      -0.00000000       1106.05847      -1.56841683    
  -1.74518704      0.763773024      -0.00000000       1106.05847      -1.56841683    
  -1.72007501      0.818759024      -0.00000000       1106.05847      -1.56841683    
  -1.82783401      0.536701024      -0.00000000       743.121582      -1.56822860    
  -1.80988598      0.594424009      -0.00000000       743.121582      -1.56822860    
   0.00000000       0.00000000       0.00000000       743.121582      -1.56822860    
  -1.84394205      0.478437006      -0.00000000       743.121582      -1.56822860    
  -1.88107097      0.300992996      -0.00000000       403.614807      -1.56831872    
  -1.87057400      0.360523999      -0.00000000       403.614807      -1.56831872    
   0.00000000       0.00000000       0.00000000       403.614807      -1.56831872    
  -1.88967395      0.241159007      -0.00000000       403.614807      -1.56831872    
   0.00000000       0.00000000       0.00000000       571.335632      -1.56822264    
  -1.87057400      0.360523999      -0.00000000       571.335632      -1.56822264    
  -1.85819399      0.419692010      -0.00000000       571.335632      -1.56822264    
  -1.84394205      0.478437006      -0.00000000       571.335632      -1.56822264    
  -1.89637399      0.181081995      -0.00000000       237.777832      -1.56863320    
  -1.88967395      0.241159007      -0.00000000       237.777832      -1.56863320    
   0.00000000       0.00000000       0.00000000       237.777832      -1.56863320    
  -1.90116501      0.120823003      -0.00000000       237.777832      -1.56863320    
  -1.90404105      -6.04420006E-02  -0.00000000       89.7944031       1.57626438    
  -1.90499997       0.00000000      -0.00000000       89.7944031       1.57626438    
   0.00000000       0.00000000       0.00000000       89.7944031       1.57626438    
  -1.90116501     -0.120823003      -0.00000000       89.7944031       1.57626438    
   0.00000000       0.00000000       0.00000000       73.7661514      -1.57061636    
  -1.90499997       0.00000000      -0.00000000       73.7661514      -1.57061636    
  -1.90404105       6.04420006E-02  -0.00000000       73.7661514      -1.57061636    
  -1.90116501      0.120823003      -0.00000000       73.7661514      -1.57061636    
  -1.89637399     -0.181081995      -0.00000000       254.372879       1.57468200    
  -1.90116501     -0.120823003      -0.00000000       254.372879       1.57468200    
   0.00000000       0.00000000       0.00000000       254.372879       1.57468200    
  -1.88967395     -0.241159007      -0.00000000       254.372879       1.57468200    
  -1.85819399     -0.419692010      -0.00000000       589.249695       1.57408750    
  -1.87057400     -0.360523999      -0.00000000       589.249695       1.57408750    
   0.00000000       0.00000000       0.00000000       589.249695       1.57408750    
  -1.84394205     -0.478437006      -0.00000000       589.249695       1.57408750    
   0.00000000       0.00000000       0.00000000       420.705627       1.57429767    
  -1.87057400     -0.360523999      -0.00000000       420.705627       1.57429767    
  -1.88107097     -0.300992996      -0.00000000       420.705627       1.57429767    
  -1.88967395     -0.241159007      -0.00000000       420.705627       1.57429767    
  -1.82783401     -0.536701024      -0.00000000       762.577209       1.57390332    
  -1.84394205     -0.478437006      -0.00000000       762.577209       1.57390332    
   0.00000000       0.00000000       0.00000000       762.577209       1.57390332    
  -1.80988598     -0.594424009      -0.00000000       762.577209       1.57390332    
  -1.74518704     -0.763773024      -0.00000000       1128.96631       1.57352245    
  -1.76854098     -0.708016992      -0.00000000       1128.96631       1.57352245    
   0.00000000       0.00000000       0.00000000       1128.96631       1.57352245    
  -1.72007501     -0.818759024      -0.00000000       1128.96631       1.57352245    
   0.00000000       0.00000000       0.00000000       941.734924       1.57372200    
  -1.76854098     -0.708016992      -0.00000000       941.734924       1.57372200    
  -1.79011405     -0.651548028      -0.00000000       941.734924       1.57372200    
  -1.80988598     -0.594424009      -0.00000000       941.734924       1.57372200    
  -1.69323206     -0.872922003      -0.00000000       1326.06958       1.57330358    
  -1.72007501     -0.818759024      -0.00000000       1326.06958       1.57330358    
   0.00000000       0.00000000       0.00000000       1326.06958       1.57330358    
  -1.66468298     -0.926204979      -0.00000000       1326.06958       1.57330358    
  -1.56910396      -1.08024895      -0.00000000       1745.38562       1.57283771    
  -1.60258806      -1.02992105      -0.00000000       1745.38562       1.57283771    
   0.00000000       0.00000000       0.00000000       1745.38562       1.57283771    
  -1.53403997      -1.12949002      -0.00000000       1745.38562       1.57283771    
   0.00000000       0.00000000       0.00000000       1532.52917       1.57307041    
  -1.60258806      -1.02992105      -0.00000000       1532.52917       1.57307041    
  -1.63445795     -0.978555024      -0.00000000       1532.52917       1.57307041    
  -1.66468298     -0.926204979      -0.00000000       1532.52917       1.57307041    
  -1.49743104      -1.17759299      -0.00000000       1958.92004       1.57261944    
  -1.53403997      -1.12949002      -0.00000000       1958.92004       1.57261944    
   0.00000000       0.00000000       0.00000000       1958.92004       1.57261944    
  -1.45931494      -1.22450995      -0.00000000       1958.92004       1.57261944    
  -1.33631003      -1.35768199      -0.00000000       2309.31274       1.57243085    
  -1.37871301      -1.31459999      -0.00000000       2309.31274       1.57243085    
   0.00000000       0.00000000       0.00000000       2309.31274       1.57243085    
  -1.29255998      -1.39939702      -0.00000000       2309.31274       1.57243085    
   0.00000000       0.00000000       0.00000000       2161.81543       1.57244444    
  -1.37871301      -1.31459999      -0.00000000       2161.81543       1.57244444    
  -1.41972899      -1.27019501      -0.00000000       2161.81543       1.57244444    
  -1.45931494      -1.22450995      -0.00000000       2161.81543       1.57244444    
  -1.24750996      -1.43970299      -0.00000000       2345.46289       1.57272112    
  -1.29255998      -1.39939702      -0.00000000       2345.46289       1.57272112    
   0.00000000       0.00000000       0.00000000       2345.46289       1.57272112    
  -1.20120299      -1.47855902      -0.00000000       2345.46289       1.57272112    
  -1.05521798      -1.58604598      -0.00000000       2295.27100       1.57358444    
  -1.10500801      -1.55176699      -0.00000000       2295.27100       1.57358444    
   0.00000000       0.00000000       0.00000000       2295.27100       1.57358444    
  -1.00436401      -1.61872697      -0.00000000       2295.27100       1.57358444    
   0.00000000       0.00000000       0.00000000       2324.99023       1.57315099    
  -1.10500801      -1.55176699      -0.00000000       2324.99023       1.57315099    
  -1.15368605      -1.51592600      -0.00000000       2324.99023       1.57315099    
  -1.20120299      -1.47855902      -0.00000000       2324.99023       1.57315099    
 -0.952499986      -1.64977801      -0.00000000       2267.72095       1.57398438    
  -1.00436401      -1.61872697      -0.00000000       2267.72095       1.57398438    
   0.00000000       0.00000000       0.00000000       2267.72095       1.57398438    
 -0.899676025      -1.67916906      -0.00000000       2267.72095       1.57398438    
 -0.735987008      -1.75708497      -0.00000000       2235.88843       1.57461584    
 -0.791365981      -1.73284900      -0.00000000       2235.88843       1.57461584    
   0.00000000       0.00000000       0.00000000       2235.88843       1.57461584    
 -0.679867983      -1.77955198      -0.00000000       2235.88843       1.57461584    
   0.00000000       0.00000000       0.00000000       2247.69019       1.57433057    
 -0.791365981      -1.73284900      -0.00000000       2247.69019       1.57433057    
 -0.845947027      -1.70686805      -0.00000000       2247.69019       1.57433057    
 -0.899676025      -1.67916906      -0.00000000       2247.69019       1.57433057    
 -0.623063982      -1.80022705      -0.00000000       2231.34473       1.57484162    
 -0.679867983      -1.77955198      -0.00000000       2231.34473       1.57484162    
   0.00000000       0.00000000       0.00000000       2231.34473       1.57484162    
 -0.565632999      -1.81908906      -0.00000000       2231.34473       1.57484162    
 -0.390157014      -1.86461902      -0.00000000       2236.42334       1.57513213    
 -0.449120998      -1.85130095      -0.00000000       2236.42334       1.57513213    
   0.00000000       0.00000000       0.00000000       2236.42334       1.57513213    
 -0.330799997      -1.87605906      -0.00000000       2236.42334       1.57513213    
   0.00000000       0.00000000       0.00000000       2232.16772       1.57501066    
 -0.449120998      -1.85130095      -0.00000000       2232.16772       1.57501066    
 -0.507632971      -1.83611906      -0.00000000       2232.16772       1.57501066    
 -0.565632999      -1.81908906      -0.00000000       2232.16772       1.57501066    
 -0.271109998      -1.88560998      -0.00000000       2241.49951       1.57521343    
 -0.330799997      -1.87605906      -0.00000000       2241.49951       1.57521343    
   0.00000000       0.00000000       0.00000000       2241.49951       1.57521343    
 -0.211146995      -1.89326203      -0.00000000       2241.49951       1.57521343    
  -3.02249994E-02  -1.90476000      -0.00000000       2245.26025       1.57529092    
  -9.06440020E-02  -1.90284204      -0.00000000       2245.26025       1.57529092    
   0.00000000       0.00000000       0.00000000       2245.26025       1.57529092    
   3.02249994E-02  -1.90476000      -0.00000000       2245.26025       1.57529092    
   0.00000000       0.00000000       0.00000000       2244.61450       1.57526624    
  -9.06440020E-02  -1.90284204      -0.00000000       2244.61450       1.57526624    
 -0.150970995      -1.89900804      -0.00000000       2244.61450       1.57526624    
 -0.211146995      -1.89326203      -0.00000000       2244.61450       1.57526624    
   9.06440020E-02  -1.90284204      -0.00000000       2243.08545       1.57529163    
   3.02249994E-02  -1.90476000      -0.00000000       2243.08545       1.57529163    
   0.00000000       0.00000000       0.00000000       2243.08545       1.57529163    
  0.150970995      -1.89900804      -0.00000000       2243.08545       1.57529163    
  0.330799997      -1.87605906      -0.00000000       2230.48291       1.57521367    
  0.271109998      -1.88560998      -0.00000000       2230.48291       1.57521367    
   0.00000000       0.00000000       0.00000000       2230.48291       1.57521367    
  0.390157014      -1.86461902      -0.00000000       2230.48291       1.57521367    
   0.00000000       0.00000000       0.00000000       2238.02759       1.57526660    
  0.271109998      -1.88560998      -0.00000000       2238.02759       1.57526660    
  0.211146995      -1.89326203      -0.00000000       2238.02759       1.57526660    
  0.150970995      -1.89900804      -0.00000000       2238.02759       1.57526660    
  0.449120998      -1.85130095      -0.00000000       2221.91211       1.57512963    
  0.390157014      -1.86461902      -0.00000000       2221.91211       1.57512963    
   0.00000000       0.00000000       0.00000000       2221.91211       1.57512963    
  0.507632971      -1.83611906      -0.00000000       2221.91211       1.57512963    
  0.679867983      -1.77955198      -0.00000000       2212.41943       1.57482350    
  0.623063982      -1.80022705      -0.00000000       2212.41943       1.57482350    
   0.00000000       0.00000000       0.00000000       2212.41943       1.57482350    
  0.735987008      -1.75708497      -0.00000000       2212.41943       1.57482350    
   0.00000000       0.00000000       0.00000000       2215.65015       1.57500017    
  0.623063982      -1.80022705      -0.00000000       2215.65015       1.57500017    
  0.565632999      -1.81908906      -0.00000000       2215.65015       1.57500017    
  0.507632971      -1.83611906      -0.00000000       2215.65015       1.57500017    
  0.791365981      -1.73284900      -0.00000000       2214.14014       1.57459223    
  0.735987008      -1.75708497      -0.00000000       2214.14014       1.57459223    
   0.00000000       0.00000000       0.00000000       2214.14014       1.57459223    
  0.845947027      -1.70686805      -0.00000000       2214.14014       1.57459223    
   1.00436401      -1.61872697      -0.00000000       2238.50537       1.57395267    
  0.952499986      -1.64977801      -0.00000000       2238.50537       1.57395267    
   0.00000000       0.00000000       0.00000000       2238.50537       1.57395267    
   1.05521798      -1.58604598      -0.00000000       2238.50537       1.57395267    
   0.00000000       0.00000000       0.00000000       2222.93286       1.57430017    
  0.952499986      -1.64977801      -0.00000000       2222.93286       1.57430017    
  0.899676025      -1.67916906      -0.00000000       2222.93286       1.57430017    
  0.845947027      -1.70686805      -0.00000000       2222.93286       1.57430017    
   1.10500801      -1.55176699      -0.00000000       2258.46289       1.57355881    
   1.05521798      -1.58604598      -0.00000000       2258.46289       1.57355881    
   0.00000000       0.00000000       0.00000000       2258.46289       1.57355881    
   1.15368605      -1.51592600      -0.00000000       2258.46289       1.57355881    
   1.29255998      -1.39939702      -0.00000000       2284.85547       1.57271874    
   1.24750996      -1.43970299      -0.00000000       2284.85547       1.57271874    
   0.00000000       0.00000000       0.00000000       2284.85547       1.57271874    
   1.33631003      -1.35768199      -0.00000000       2284.85547       1.57271874    
   0.00000000       0.00000000       0.00000000       2277.63086       1.57313585    
   1.24750996      -1.43970299      -0.00000000       2277.63086       1.57313585    
   1.20120299      -1.47855902      -0.00000000       2277.63086       1.57313585    