 VARIABLES="X" "Y" "Z" "abs(p) (Pa)" "angle(p) (rad)"
ZONE N=    802,E =     800, F=FEPOINT, ET=QUADRILATERAL
   1.90499997       0.00000000      -0.00000000       31.1317196       1.69870305    
   1.90404105      -6.04420006E-02  -0.00000000       31.1317196       1.69870305    
   0.00000000       0.00000000       0.00000000       31.1317196       1.69870305    
   1.90404105       6.04420006E-02  -0.00000000       31.1317196       1.69870305    
   1.88967395      0.241159007      -0.00000000       31.1162014       1.69876373    
   1.89637399      0.181081995      -0.00000000       31.1162014       1.69876373    
   0.00000000       0.00000000       0.00000000       31.1162014       1.69876373    
   1.88107097      0.300992996      -0.00000000       31.1162014       1.69876373    
   0.00000000       0.00000000       0.00000000       31.1277866       1.69871855    
   1.89637399      0.181081995      -0.00000000       31.1277866       1.69871855    
   1.90116501      0.120823003      -0.00000000       31.1277866       1.69871855    
   1.90404105       6.04420006E-02  -0.00000000       31.1277866       1.69871855    
   1.87057400      0.360523999      -0.00000000       31.0949001       1.69884694    
   1.88107097      0.300992996      -0.00000000       31.0949001       1.69884694    
   0.00000000       0.00000000       0.00000000       31.0949001       1.69884694    
   1.85819399      0.419692010      -0.00000000       31.0949001       1.69884694    
   1.80988598      0.594424009      -0.00000000       31.0180607       1.69914842    
   1.82783401      0.536701024      -0.00000000       31.0180607       1.69914842    
   0.00000000       0.00000000       0.00000000       31.0180607       1.69914842    
   1.79011405      0.651548028      -0.00000000       31.0180607       1.69914842    
   0.00000000       0.00000000       0.00000000       31.0629082       1.69897234    
   1.82783401      0.536701024      -0.00000000       31.0629082       1.69897234    
   1.84394205      0.478437006      -0.00000000       31.0629082       1.69897234    
   1.85819399      0.419692010      -0.00000000       31.0629082       1.69897234    
   1.76854098      0.708016992      -0.00000000       30.9568710       1.69938910    
   1.79011405      0.651548028      -0.00000000       30.9568710       1.69938910    
   0.00000000       0.00000000       0.00000000       30.9568710       1.69938910    
   1.74518704      0.763773024      -0.00000000       30.9568710       1.69938910    
   1.66468298      0.926204979      -0.00000000       30.7849445       1.70006728    
   1.69323206      0.872922003      -0.00000000       30.7849445       1.70006728    
   0.00000000       0.00000000       0.00000000       30.7849445       1.70006728    
   1.63445795      0.978555024      -0.00000000       30.7849445       1.70006728    
   0.00000000       0.00000000       0.00000000       30.8791752       1.69969547    
   1.69323206      0.872922003      -0.00000000       30.8791752       1.69969547    
   1.72007501      0.818759024      -0.00000000       30.8791752       1.69969547    
   1.74518704      0.763773024      -0.00000000       30.8791752       1.69969547    
   1.60258806       1.02992105      -0.00000000       30.6777515       1.70049095    
   1.63445795      0.978555024      -0.00000000       30.6777515       1.70049095    
   0.00000000       0.00000000       0.00000000       30.6777515       1.70049095    
   1.56910396       1.08024895      -0.00000000       30.6777515       1.70049095    
   1.45931494       1.22450995      -0.00000000       30.4524078       1.70137858    
   1.49743104       1.17759299      -0.00000000       30.4524078       1.70137858    
   0.00000000       0.00000000       0.00000000       30.4524078       1.70137858    
   1.41972899       1.27019501      -0.00000000       30.4524078       1.70137858    
   0.00000000       0.00000000       0.00000000       30.5620441       1.70094752    
   1.49743104       1.17759299      -0.00000000       30.5620441       1.70094752    
   1.53403997       1.12949002      -0.00000000       30.5620441       1.70094752    
   1.56910396       1.08024895      -0.00000000       30.5620441       1.70094752    
   1.37871301       1.31459999      -0.00000000       30.3978291       1.70159125    
   1.41972899       1.27019501      -0.00000000       30.3978291       1.70159125    
   0.00000000       0.00000000       0.00000000       30.3978291       1.70159125    
   1.33631003       1.35768199      -0.00000000       30.3978291       1.70159125    
   1.20120299       1.47855902      -0.00000000       30.5810528       1.70086908    
   1.24750996       1.43970299      -0.00000000       30.5810528       1.70086908    
   0.00000000       0.00000000       0.00000000       30.5810528       1.70086908    
   1.15368605       1.51592600      -0.00000000       30.5810528       1.70086908    
   0.00000000       0.00000000       0.00000000       30.4612541       1.70134103    
   1.24750996       1.43970299      -0.00000000       30.4612541       1.70134103    
   1.29255998       1.39939702      -0.00000000       30.4612541       1.70134103    
   1.33631003       1.35768199      -0.00000000       30.4612541       1.70134103    
   1.10500801       1.55176699      -0.00000000       30.7039776       1.70038414    
   1.15368605       1.51592600      -0.00000000       30.7039776       1.70038414    
   0.00000000       0.00000000       0.00000000       30.7039776       1.70038414    
   1.05521798       1.58604598      -0.00000000       30.7039776       1.70038414    
  0.899676025       1.67916906      -0.00000000       30.9114285       1.69956625    
  0.952499986       1.64977801      -0.00000000       30.9114285       1.69956625    
   0.00000000       0.00000000       0.00000000       30.9114285       1.69956625    
  0.845947027       1.70686805      -0.00000000       30.9114285       1.69956625    
   0.00000000       0.00000000       0.00000000       30.8155117       1.69994402    
  0.952499986       1.64977801      -0.00000000       30.8155117       1.69994402    
   1.00436401       1.61872697      -0.00000000       30.8155117       1.69994402    
   1.05521798       1.58604598      -0.00000000       30.8155117       1.69994402    
  0.791365981       1.73284900      -0.00000000       30.9887810       1.69926202    
  0.845947027       1.70686805      -0.00000000       30.9887810       1.69926202    
   0.00000000       0.00000000       0.00000000       30.9887810       1.69926202    
  0.735987008       1.75708497      -0.00000000       30.9887810       1.69926202    
  0.565632999       1.81908906      -0.00000000       31.0934315       1.69885182    
  0.623063982       1.80022705      -0.00000000       31.0934315       1.69885182    
   0.00000000       0.00000000       0.00000000       31.0934315       1.69885182    
  0.507632971       1.83611906      -0.00000000       31.0934315       1.69885182    
   0.00000000       0.00000000       0.00000000       31.0488434       1.69902635    
  0.623063982       1.80022705      -0.00000000       31.0488434       1.69902635    
  0.679867983       1.77955198      -0.00000000       31.0488434       1.69902635    
  0.735987008       1.75708497      -0.00000000       31.0488434       1.69902635    
  0.449120998       1.85130095      -0.00000000       31.1258125       1.69872546    
  0.507632971       1.83611906      -0.00000000       31.1258125       1.69872546    
   0.00000000       0.00000000       0.00000000       31.1258125       1.69872546    
  0.390157014       1.86461902      -0.00000000       31.1258125       1.69872546    
  0.211146995       1.89326203      -0.00000000       31.1606655       1.69858980    
  0.271109998       1.88560998      -0.00000000       31.1606655       1.69858980    
   0.00000000       0.00000000       0.00000000       31.1606655       1.69858980    
  0.150970995       1.89900804      -0.00000000       31.1606655       1.69858980    
   0.00000000       0.00000000       0.00000000       31.1474686       1.69864106    
  0.271109998       1.88560998      -0.00000000       31.1474686       1.69864106    
  0.330799997       1.87605906      -0.00000000       31.1474686       1.69864106    
  0.390157014       1.86461902      -0.00000000       31.1474686       1.69864106    
   9.06440020E-02   1.90284204      -0.00000000       31.1669197       1.69856560    
  0.150970995       1.89900804      -0.00000000       31.1669197       1.69856560    
   0.00000000       0.00000000       0.00000000       31.1669197       1.69856560    
   3.02249994E-02   1.90476000      -0.00000000       31.1669197       1.69856560    
 -0.150970995       1.89900804      -0.00000000       31.1593609       1.69859469    
  -9.06440020E-02   1.90284204      -0.00000000       31.1593609       1.69859469    
   0.00000000       0.00000000       0.00000000       31.1593609       1.69859469    
 -0.211146995       1.89326203      -0.00000000       31.1593609       1.69859469    
   0.00000000       0.00000000       0.00000000       31.1665840       1.69856679    
  -9.06440020E-02   1.90284204      -0.00000000       31.1665840       1.69856679    
  -3.02249994E-02   1.90476000      -0.00000000       31.1665840       1.69856679    
   3.02249994E-02   1.90476000      -0.00000000       31.1665840       1.69856679    
 -0.271109998       1.88560998      -0.00000000       31.1449509       1.69865084    
 -0.211146995       1.89326203      -0.00000000       31.1449509       1.69865084    
   0.00000000       0.00000000       0.00000000       31.1449509       1.69865084    
 -0.330799997       1.87605906      -0.00000000       31.1449509       1.69865084    
 -0.507632971       1.83611906      -0.00000000       31.0861855       1.69888031    
 -0.449120998       1.85130095      -0.00000000       31.0861855       1.69888031    
   0.00000000       0.00000000       0.00000000       31.0861855       1.69888031    
 -0.565632999       1.81908906      -0.00000000       31.0861855       1.69888031    
   0.00000000       0.00000000       0.00000000       31.1210079       1.69874418    
 -0.449120998       1.85130095      -0.00000000       31.1210079       1.69874418    
 -0.390157014       1.86461902      -0.00000000       31.1210079       1.69874418    
 -0.330799997       1.87605906      -0.00000000       31.1210079       1.69874418    
 -0.623063982       1.80022705      -0.00000000       31.0383854       1.69906747    
 -0.565632999       1.81908906      -0.00000000       31.0383854       1.69906747    
   0.00000000       0.00000000       0.00000000       31.0383854       1.69906747    
 -0.679867983       1.77955198      -0.00000000       31.0383854       1.69906747    
 -0.845947027       1.70686805      -0.00000000       30.8942413       1.69963503    
 -0.791365981       1.73284900      -0.00000000       30.8942413       1.69963503    
   0.00000000       0.00000000       0.00000000       30.8942413       1.69963503    
 -0.899676025       1.67916906      -0.00000000       30.8942413       1.69963503    
   0.00000000       0.00000000       0.00000000       30.9744148       1.69931901    
 -0.791365981       1.73284900      -0.00000000       30.9744148       1.69931901    
 -0.735987008       1.75708497      -0.00000000       30.9744148       1.69931901    
 -0.679867983       1.77955198      -0.00000000       30.9744148       1.69931901    
 -0.952499986       1.64977801      -0.00000000       30.7980556       1.70001423    
 -0.899676025       1.67916906      -0.00000000       30.7980556       1.70001423    
   0.00000000       0.00000000       0.00000000       30.7980556       1.70001423    
  -1.00436401       1.61872697      -0.00000000       30.7980556       1.70001423    
  -1.15368605       1.51592600      -0.00000000       30.5717411       1.70090783    
  -1.10500801       1.55176699      -0.00000000       30.5717411       1.70090783    
   0.00000000       0.00000000       0.00000000       30.5717411       1.70090783    
  -1.20120299       1.47855902      -0.00000000       30.5717411       1.70090783    
   0.00000000       0.00000000       0.00000000       30.6889248       1.70044541    
  -1.10500801       1.55176699      -0.00000000       30.6889248       1.70044541    
  -1.05521798       1.58604598      -0.00000000       30.6889248       1.70044541    
  -1.00436401       1.61872697      -0.00000000       30.6889248       1.70044541    
  -1.24750996       1.43970299      -0.00000000       30.4607430       1.70134377    
  -1.20120299       1.47855902      -0.00000000       30.4607430       1.70134377    
   0.00000000       0.00000000       0.00000000       30.4607430       1.70134377    
  -1.29255998       1.39939702      -0.00000000       30.4607430       1.70134377    
  -1.41972899       1.27019501      -0.00000000       30.4681816       1.70131242    
  -1.37871301       1.31459999      -0.00000000       30.4681816       1.70131242    
   0.00000000       0.00000000       0.00000000       30.4681816       1.70131242    
  -1.45931494       1.22450995      -0.00000000       30.4681816       1.70131242    
   0.00000000       0.00000000       0.00000000       30.4052849       1.70156002    
  -1.37871301       1.31459999      -0.00000000       30.4052849       1.70156002    
  -1.33631003       1.35768199      -0.00000000       30.4052849       1.70156002    
  -1.29255998       1.39939702      -0.00000000       30.4052849       1.70156002    
  -1.49743104       1.17759299      -0.00000000       30.5873318       1.70084333    
  -1.45931494       1.22450995      -0.00000000       30.5873318       1.70084333    
   0.00000000       0.00000000       0.00000000       30.5873318       1.70084333    
  -1.53403997       1.12949002      -0.00000000       30.5873318       1.70084333    
  -1.63445795      0.978555024      -0.00000000       30.8207607       1.69992280    
  -1.60258806       1.02992105      -0.00000000       30.8207607       1.69992280    
   0.00000000       0.00000000       0.00000000       30.8207607       1.69992280    
  -1.66468298      0.926204979      -0.00000000       30.8207607       1.69992280    
   0.00000000       0.00000000       0.00000000       30.7097244       1.70036054    
  -1.60258806       1.02992105      -0.00000000       30.7097244       1.70036054    
  -1.56910396       1.08024895      -0.00000000       30.7097244       1.70036054    
  -1.53403997       1.12949002      -0.00000000       30.7097244       1.70036054    
  -1.69323206      0.872922003      -0.00000000       30.9161148       1.69954717    
  -1.66468298      0.926204979      -0.00000000       30.9161148       1.69954717    
   0.00000000       0.00000000       0.00000000       30.9161148       1.69954717    
  -1.72007501      0.818759024      -0.00000000       30.9161148       1.69954717    
  -1.79011405      0.651548028      -0.00000000       31.0528316       1.69901037    
  -1.76854098      0.708016992      -0.00000000       31.0528316       1.69901037    
   0.00000000       0.00000000       0.00000000       31.0528316       1.69901037    
  -1.80988598      0.594424009      -0.00000000       31.0528316       1.69901037    
   0.00000000       0.00000000       0.00000000       30.9931202       1.69924450    
  -1.76854098      0.708016992      -0.00000000       30.9931202       1.69924450    
  -1.74518704      0.763773024      -0.00000000       30.9931202       1.69924450    
  -1.72007501      0.818759024      -0.00000000       30.9931202       1.69924450    
  -1.82783401      0.536701024      -0.00000000       31.0971584       1.69883692    
  -1.80988598      0.594424009      -0.00000000       31.0971584       1.69883692    
   0.00000000       0.00000000       0.00000000       31.0971584       1.69883692    
  -1.84394205      0.478437006      -0.00000000       31.0971584       1.69883692    
  -1.88107097      0.300992996      -0.00000000       31.1505661       1.69862866    
  -1.87057400      0.360523999      -0.00000000       31.1505661       1.69862866    
   0.00000000       0.00000000       0.00000000       31.1505661       1.69862866    
  -1.88967395      0.241159007      -0.00000000       31.1505661       1.69862866    
   0.00000000       0.00000000       0.00000000       31.1292114       1.69871175    
  -1.87057400      0.360523999      -0.00000000       31.1292114       1.69871175    
  -1.85819399      0.419692010      -0.00000000       31.1292114       1.69871175    
  -1.84394205      0.478437006      -0.00000000       31.1292114       1.69871175    
  -1.89637399      0.181081995      -0.00000000       31.1635056       1.69857848    
  -1.88967395      0.241159007      -0.00000000       31.1635056       1.69857848    
   0.00000000       0.00000000       0.00000000       31.1635056       1.69857848    
  -1.90116501      0.120823003      -0.00000000       31.1635056       1.69857848    
  -1.90404105      -6.04420006E-02  -0.00000000       31.1690960       1.69855678    
  -1.90499997       0.00000000      -0.00000000       31.1690960       1.69855678    
   0.00000000       0.00000000       0.00000000       31.1690960       1.69855678    
  -1.90116501     -0.120823003      -0.00000000       31.1690960       1.69855678    
   0.00000000       0.00000000       0.00000000       31.1696758       1.69855464    
  -1.90499997       0.00000000      -0.00000000       31.1696758       1.69855464    
  -1.90404105       6.04420006E-02  -0.00000000       31.1696758       1.69855464    
  -1.90116501      0.120823003      -0.00000000       31.1696758       1.69855464    
  -1.89637399     -0.181081995      -0.00000000       31.1617279       1.69858551    
  -1.90116501     -0.120823003      -0.00000000       31.1617279       1.69858551    
   0.00000000       0.00000000       0.00000000       31.1617279       1.69858551    
  -1.88967395     -0.241159007      -0.00000000       31.1617279       1.69858551    
  -1.85819399     -0.419692010      -0.00000000       31.1229630       1.69873655    
  -1.87057400     -0.360523999      -0.00000000       31.1229630       1.69873655    
   0.00000000       0.00000000       0.00000000       31.1229630       1.69873655    
  -1.84394205     -0.478437006      -0.00000000       31.1229630       1.69873655    
   0.00000000       0.00000000       0.00000000       31.1471748       1.69864202    
  -1.87057400     -0.360523999      -0.00000000       31.1471748       1.69864202    
  -1.88107097     -0.300992996      -0.00000000       31.1471748       1.69864202    
  -1.88967395     -0.241159007      -0.00000000       31.1471748       1.69864202    
  -1.82783401     -0.536701024      -0.00000000       31.0879459       1.69887340    
  -1.84394205     -0.478437006      -0.00000000       31.0879459       1.69887340    
   0.00000000       0.00000000       0.00000000       31.0879459       1.69887340    
  -1.80988598     -0.594424009      -0.00000000       31.0879459       1.69887340    
  -1.74518704     -0.763773024      -0.00000000       30.9755611       1.69931459    
  -1.76854098     -0.708016992      -0.00000000       30.9755611       1.69931459    
   0.00000000       0.00000000       0.00000000       30.9755611       1.69931459    
  -1.72007501     -0.818759024      -0.00000000       30.9755611       1.69931459    
   0.00000000       0.00000000       0.00000000       31.0398407       1.69906187    
  -1.76854098     -0.708016992      -0.00000000       31.0398407       1.69906187    
  -1.79011405     -0.651548028      -0.00000000       31.0398407       1.69906187    
  -1.80988598     -0.594424009      -0.00000000       31.0398407       1.69906187    
  -1.69323206     -0.872922003      -0.00000000       30.8951778       1.69963121    
  -1.72007501     -0.818759024      -0.00000000       30.8951778       1.69963121    
   0.00000000       0.00000000       0.00000000       30.8951778       1.69963121    
  -1.66468298     -0.926204979      -0.00000000       30.8951778       1.69963121    
  -1.56910396      -1.08024895      -0.00000000       30.6891537       1.70044446    
  -1.60258806      -1.02992105      -0.00000000       30.6891537       1.70044446    
   0.00000000       0.00000000       0.00000000       30.6891537       1.70044446    
  -1.53403997      -1.12949002      -0.00000000       30.6891537       1.70044446    
   0.00000000       0.00000000       0.00000000       30.7986317       1.70001209    
  -1.60258806      -1.02992105      -0.00000000       30.7986317       1.70001209    
  -1.63445795     -0.978555024      -0.00000000       30.7986317       1.70001209    
  -1.66468298     -0.926204979      -0.00000000       30.7986317       1.70001209    
  -1.49743104      -1.17759299      -0.00000000       30.5716038       1.70090818    
  -1.53403997      -1.12949002      -0.00000000       30.5716038       1.70090818    
   0.00000000       0.00000000       0.00000000       30.5716038       1.70090818    
  -1.45931494      -1.22450995      -0.00000000       30.5716038       1.70090818    
  -1.33631003      -1.35768199      -0.00000000       30.4048615       1.70156205    
  -1.37871301      -1.31459999      -0.00000000       30.4048615       1.70156205    
   0.00000000       0.00000000       0.00000000       30.4048615       1.70156205    
  -1.29255998      -1.39939702      -0.00000000       30.4048615       1.70156205    
   0.00000000       0.00000000       0.00000000       30.4603176       1.70134544    
  -1.37871301      -1.31459999      -0.00000000       30.4603176       1.70134544    
  -1.41972899      -1.27019501      -0.00000000       30.4603176       1.70134544    
  -1.45931494      -1.22450995      -0.00000000       30.4603176       1.70134544    
  -1.24750996      -1.43970299      -0.00000000       30.4679127       1.70131361    
  -1.29255998      -1.39939702      -0.00000000       30.4679127       1.70131361    
   0.00000000       0.00000000       0.00000000       30.4679127       1.70131361    
  -1.20120299      -1.47855902      -0.00000000       30.4679127       1.70131361    
  -1.05521798      -1.58604598      -0.00000000       30.7088089       1.70036435    
  -1.10500801      -1.55176699      -0.00000000       30.7088089       1.70036435    
   0.00000000       0.00000000       0.00000000       30.7088089       1.70036435    
  -1.00436401      -1.61872697      -0.00000000       30.7088089       1.70036435    
   0.00000000       0.00000000       0.00000000       30.5867405       1.70084572    
  -1.10500801      -1.55176699      -0.00000000       30.5867405       1.70084572    
  -1.15368605      -1.51592600      -0.00000000       30.5867405       1.70084572    
  -1.20120299      -1.47855902      -0.00000000       30.5867405       1.70084572    
 -0.952499986      -1.64977801      -0.00000000       30.8194847       1.69992793    
  -1.00436401      -1.61872697      -0.00000000       30.8194847       1.69992793    
   0.00000000       0.00000000       0.00000000       30.8194847       1.69992793    
 -0.899676025      -1.67916906      -0.00000000       30.8194847       1.69992793    
 -0.735987008      -1.75708497      -0.00000000       30.9913387       1.69925177    
 -0.791365981      -1.73284900      -0.00000000       30.9913387       1.69925177    
   0.00000000       0.00000000       0.00000000       30.9913387       1.69925177    
 -0.679867983      -1.77955198      -0.00000000       30.9913387       1.69925177    
   0.00000000       0.00000000       0.00000000       30.9145985       1.69955337    
 -0.791365981      -1.73284900      -0.00000000       30.9145985       1.69955337    
 -0.845947027      -1.70686805      -0.00000000       30.9145985       1.69955337    
 -0.899676025      -1.67916906      -0.00000000       30.9145985       1.69955337    
 -0.623063982      -1.80022705      -0.00000000       31.0507259       1.69901872    
 -0.679867983      -1.77955198      -0.00000000       31.0507259       1.69901872    
   0.00000000       0.00000000       0.00000000       31.0507259       1.69901872    
 -0.565632999      -1.81908906      -0.00000000       31.0507259       1.69901872    
 -0.390157014      -1.86461902      -0.00000000       31.1266899       1.69872165    
 -0.449120998      -1.85130095      -0.00000000       31.1266899       1.69872165    
   0.00000000       0.00000000       0.00000000       31.1266899       1.69872165    
 -0.330799997      -1.87605906      -0.00000000       31.1266899       1.69872165    
   0.00000000       0.00000000       0.00000000       31.0948105       1.69884634    
 -0.449120998      -1.85130095      -0.00000000       31.0948105       1.69884634    
 -0.507632971      -1.83611906      -0.00000000       31.0948105       1.69884634    
 -0.565632999      -1.81908906      -0.00000000       31.0948105       1.69884634    
 -0.271109998      -1.88560998      -0.00000000       31.1478882       1.69863915    
 -0.330799997      -1.87605906      -0.00000000       31.1478882       1.69863915    
   0.00000000       0.00000000       0.00000000       31.1478882       1.69863915    
 -0.211146995      -1.89326203      -0.00000000       31.1478882       1.69863915    
  -3.02249994E-02  -1.90476000      -0.00000000       31.1665936       1.69856668    
  -9.06440020E-02  -1.90284204      -0.00000000       31.1665936       1.69856668    
   0.00000000       0.00000000       0.00000000       31.1665936       1.69856668    
   3.02249994E-02  -1.90476000      -0.00000000       31.1665936       1.69856668    
   0.00000000       0.00000000       0.00000000       31.1606293       1.69858968    
  -9.06440020E-02  -1.90284204      -0.00000000       31.1606293       1.69858968    
 -0.150970995      -1.89900804      -0.00000000       31.1606293       1.69858968    
 -0.211146995      -1.89326203      -0.00000000       31.1606293       1.69858968    
   9.06440020E-02  -1.90284204      -0.00000000       31.1659031       1.69856942    
   3.02249994E-02  -1.90476000      -0.00000000       31.1659031       1.69856942    
   0.00000000       0.00000000       0.00000000       31.1659031       1.69856942    
  0.150970995      -1.89900804      -0.00000000       31.1659031       1.69856942    
  0.330799997      -1.87605906      -0.00000000       31.1433868       1.69865716    
  0.271109998      -1.88560998      -0.00000000       31.1433868       1.69865716    
   0.00000000       0.00000000       0.00000000       31.1433868       1.69865716    
  0.390157014      -1.86461902      -0.00000000       31.1433868       1.69865716    
   0.00000000       0.00000000       0.00000000       31.1582756       1.69859922    
  0.271109998      -1.88560998      -0.00000000       31.1582756       1.69859922    
  0.211146995      -1.89326203      -0.00000000       31.1582756       1.69859922    
  0.150970995      -1.89900804      -0.00000000       31.1582756       1.69859922    
  0.449120998      -1.85130095      -0.00000000       31.1189480       1.69875252    
  0.390157014      -1.86461902      -0.00000000       31.1189480       1.69875252    
   0.00000000       0.00000000       0.00000000       31.1189480       1.69875252    
  0.507632971      -1.83611906      -0.00000000       31.1189480       1.69875252    
  0.679867983      -1.77955198      -0.00000000       31.0351105       1.69908082    
  0.623063982      -1.80022705      -0.00000000       31.0351105       1.69908082    
   0.00000000       0.00000000       0.00000000       31.0351105       1.69908082    
  0.735987008      -1.75708497      -0.00000000       31.0351105       1.69908082    
   0.00000000       0.00000000       0.00000000       31.0835552       1.69889092    
  0.623063982      -1.80022705      -0.00000000       31.0835552       1.69889092    
  0.565632999      -1.81908906      -0.00000000       31.0835552       1.69889092    
  0.507632971      -1.83611906      -0.00000000       31.0835552       1.69889092    
  0.791365981      -1.73284900      -0.00000000       30.9704113       1.69933510    
  0.735987008      -1.75708497      -0.00000000       30.9704113       1.69933510    
   0.00000000       0.00000000       0.00000000       30.9704113       1.69933510    
  0.845947027      -1.70686805      -0.00000000       30.9704113       1.69933510    
   1.00436401      -1.61872697      -0.00000000       30.7923393       1.70003736    
  0.952499986      -1.64977801      -0.00000000       30.7923393       1.70003736    
   0.00000000       0.00000000       0.00000000       30.7923393       1.70003736    
   1.05521798      -1.58604598      -0.00000000       30.7923393       1.70003736    
   0.00000000       0.00000000       0.00000000       30.8894958       1.69965386    
  0.952499986      -1.64977801      -0.00000000       30.8894958       1.69965386    
  0.899676025      -1.67916906      -0.00000000       30.8894958       1.69965386    
  0.845947027      -1.70686805      -0.00000000       30.8894958       1.69965386    
   1.10500801      -1.55176699      -0.00000000       30.6822681       1.70047224    
   1.05521798      -1.58604598      -0.00000000       30.6822681       1.70047224    
   0.00000000       0.00000000       0.00000000       30.6822681       1.70047224    
   1.15368605      -1.51592600      -0.00000000       30.6822681       1.70047224    
   1.29255998      -1.39939702      -0.00000000       30.4519024       1.70138013    
   1.24750996      -1.43970299      -0.00000000       30.4519024       1.70138013    
   0.00000000       0.00000000       0.00000000       30.4519024       1.70138013    
   1.33631003      -1.35768199      -0.00000000       30.4519024       1.70138013    
   0.00000000       0.00000000       0.00000000       30.5639210       1.70093966    
   1.24750996      -1.43970299      -0.00000000       30.5639210       1.70093966    
   1.20120299      -1.47855902      -0.00000000       30.5639210       1.70093966    