VARIABLES="w (rad/s)"  
"A   1   1" "B   1   1"
"A   1   2" "B   1   2"
"A   1   3" "B   1   3"
"A   1   4" "B   1   4"
"A   1   5" "B   1   5"
"A   1   6" "B   1   6"
Zone t="Motion of body    1 in DoF   1",I=    50,F=POINT
  0.1000000E+00  0.6901777E+04 -0.9591319E-05 -0.1116539E+02 -0.1434819E-06  0.3751475E+01  0.2624370E-02  0.7583627E+02  0.9624288E-06  0.4700730E+05 -0.6795302E-04 -0.4241556E-01 -0.8694750E-05
  0.1387755E+00  0.6900629E+04 -0.2417139E-04 -0.1117422E+02 -0.7452576E-06  0.3773089E+01  0.6950599E-02  0.7589258E+02  0.5139806E-05  0.4699931E+05 -0.1757951E-03 -0.4245460E-01 -0.2301332E-04
  0.1775510E+00  0.6899252E+04  0.2652174E-04 -0.1117850E+02  0.9858601E-06  0.3801136E+01  0.1440846E-01  0.7592262E+02 -0.6650670E-05  0.4698973E+05  0.1501146E-03 -0.4253629E-01 -0.4766879E-04
  0.2163265E+00  0.6897521E+04  0.2061509E-03 -0.1116244E+02  0.5433640E-06  0.3826893E+01  0.2569891E-01  0.7581210E+02 -0.3740085E-05  0.4697773E+05  0.1311718E-02 -0.4257506E-01 -0.8493816E-04
  0.2551020E+00  0.6896004E+04  0.7557338E-03 -0.1116990E+02  0.3815097E-05  0.3844524E+01  0.4137265E-01  0.7585519E+02 -0.2498795E-04  0.4696714E+05  0.4886530E-02 -0.4261523E-01 -0.1365724E-03
  0.2938775E+00  0.6893665E+04  0.2248692E-02 -0.1114935E+02  0.2984642E-05  0.3870083E+01  0.6205887E-01  0.7572136E+02 -0.2155182E-04  0.4695089E+05  0.1466569E-01 -0.4266107E-01 -0.2045787E-03
  0.3326530E+00  0.6890611E+04  0.5434955E-02 -0.1113269E+02  0.1793289E-04  0.3880729E+01  0.8779440E-01  0.7560306E+02 -0.1224011E-03  0.4692966E+05  0.3555131E-01 -0.4263231E-01 -0.2889674E-03
  0.3714286E+00  0.6887548E+04  0.1169034E-01 -0.1112065E+02  0.3652844E-04  0.3894460E+01  0.1190464E+00  0.7552293E+02 -0.2523444E-03  0.4690832E+05  0.7656755E-01 -0.4262179E-01 -0.3911417E-03
  0.4102041E+00  0.6884167E+04  0.2306579E-01 -0.1112508E+02  0.6719185E-04  0.3904631E+01  0.1557802E+00  0.7555237E+02 -0.4652848E-03  0.4688478E+05  0.1511460E+00 -0.4259983E-01 -0.5108615E-03
  0.4489796E+00  0.6879673E+04  0.4231733E-01 -0.1111889E+02  0.1380723E-03  0.3903171E+01  0.1974780E+00  0.7550566E+02 -0.9537917E-03  0.4685343E+05  0.2772853E+00 -0.4251209E-01 -0.6462234E-03
  0.4877551E+00  0.6875139E+04  0.7354986E-01 -0.1108307E+02  0.2685124E-03  0.3904869E+01  0.2446171E+00  0.7525998E+02 -0.1849213E-02  0.4682191E+05  0.4819029E+00 -0.4243702E-01 -0.7987286E-03
  0.5265306E+00  0.6870909E+04  0.1209210E+00 -0.1105483E+02  0.4436052E-03  0.3893992E+01  0.2957669E+00  0.7506841E+02 -0.3053474E-02  0.4679252E+05  0.7918067E+00 -0.4232728E-01 -0.9634322E-03
  0.5653061E+00  0.6865622E+04  0.1908987E+00 -0.1105933E+02  0.7461666E-03  0.3878641E+01  0.3510126E+00  0.7509361E+02 -0.5131173E-02  0.4675563E+05  0.1249229E+01 -0.4218659E-01 -0.1140465E-02
  0.6040816E+00  0.6859938E+04  0.2907149E+00 -0.1101003E+02  0.1105022E-02  0.3861885E+01  0.4097069E+00  0.7475847E+02 -0.7612601E-02  0.4671613E+05  0.1901082E+01 -0.4201591E-01 -0.1327523E-02
  0.6428572E+00  0.6854619E+04  0.4278983E+00 -0.1102411E+02  0.1849572E-02  0.3839028E+01  0.4711563E+00  0.7485507E+02 -0.1271909E-01  0.4667907E+05  0.2795717E+01 -0.4186291E-01 -0.1522393E-02
  0.6816327E+00  0.6847625E+04  0.6112214E+00 -0.1095623E+02  0.2799901E-02  0.3811043E+01  0.5341476E+00  0.7438846E+02 -0.1927608E-01  0.4663049E+05  0.3989473E+01 -0.4163826E-01 -0.1720829E-02
  0.7204082E+00  0.6841411E+04  0.8477440E+00 -0.1097132E+02  0.3889333E-02  0.3782332E+01  0.5991843E+00  0.7448845E+02 -0.2675955E-01  0.4658714E+05  0.5526172E+01 -0.4145426E-01 -0.1924502E-02
  0.7591837E+00  0.6833469E+04  0.1147596E+01 -0.1089350E+02  0.5753030E-02  0.3753182E+01  0.6651586E+00  0.7395749E+02 -0.3954562E-01  0.4653204E+05  0.7470507E+01 -0.4122004E-01 -0.2129995E-02
  0.7979592E+00  0.6825894E+04  0.1515767E+01 -0.1093532E+02  0.7913518E-02  0.3721361E+01  0.7309579E+00  0.7423543E+02 -0.5439817E-01  0.4647928E+05  0.9851078E+01 -0.4100475E-01 -0.2332984E-02
  0.8367347E+00  0.6817479E+04  0.1958508E+01 -0.1081051E+02  0.1078546E-01  0.3680163E+01  0.7944647E+00  0.7338326E+02 -0.7412650E-01  0.4642095E+05  0.1270492E+02 -0.4073587E-01 -0.2527413E-02
  0.8755102E+00  0.6808316E+04  0.2478055E+01 -0.1082129E+02  0.1508135E-01  0.3644933E+01  0.8578463E+00  0.7345660E+02 -0.1035699E+00  0.4635720E+05  0.1604169E+02 -0.4047057E-01 -0.2719406E-02
  0.9142857E+00  0.6799548E+04  0.3062893E+01 -0.1078819E+02  0.2029471E-01  0.3614319E+01  0.9213530E+00  0.7322981E+02 -0.1393429E+00  0.4629639E+05  0.1977548E+02 -0.4024845E-01 -0.2910672E-02
  0.9530612E+00  0.6788562E+04  0.3717811E+01 -0.1069135E+02  0.2646319E-01  0.3566470E+01  0.9773057E+00  0.7256517E+02 -0.1816083E+00  0.4622028E+05  0.2393468E+02 -0.3991419E-01 -0.3076384E-02
  0.9918368E+00  0.6777864E+04  0.4415127E+01 -0.1072839E+02  0.3565486E-01  0.3538976E+01  0.1036968E+01  0.7281404E+02 -0.2445436E+00  0.4614596E+05  0.2832337E+02 -0.3968218E-01 -0.3251961E-02
  0.1030612E+01  0.6767014E+04  0.5125285E+01 -0.1064833E+02  0.4659851E-01  0.3504579E+01  0.1091085E+01  0.7226627E+02 -0.3193513E+00  0.4607090E+05  0.3273341E+02 -0.3941929E-01 -0.3409406E-02
  0.1069388E+01  0.6753912E+04  0.5837258E+01 -0.1051945E+02  0.5962439E-01  0.3462552E+01  0.1138866E+01  0.7139003E+02 -0.4084521E+00  0.4598030E+05  0.3708801E+02 -0.3908530E-01 -0.3544865E-02
  0.1108163E+01  0.6741142E+04  0.6482467E+01 -0.1056512E+02  0.7423285E-01  0.3435401E+01  0.1187681E+01  0.7170074E+02 -0.5084541E+00  0.4589183E+05  0.4091369E+02 -0.3882992E-01 -0.3682129E-02
  0.1146939E+01  0.6728112E+04  0.6999565E+01 -0.1052652E+02  0.9123204E-01  0.3412372E+01  0.1233721E+01  0.7143004E+02 -0.6245989E+00  0.4580183E+05  0.4378650E+02 -0.3858778E-01 -0.3809149E-02
  0.1185714E+01  0.6712608E+04  0.7359682E+01 -0.1035699E+02  0.1137838E+00  0.3367296E+01  0.1265885E+01  0.7027322E+02 -0.7785990E+00  0.4569494E+05  0.4551428E+02 -0.3823093E-01 -0.3890469E-02
  0.1224490E+01  0.6697619E+04  0.7462960E+01 -0.1033205E+02  0.1408222E+00  0.3347186E+01  0.1303567E+01  0.7010295E+02 -0.9631605E+00  0.4559135E+05  0.4541523E+02 -0.3796017E-01 -0.3989073E-02
  0.1263265E+01  0.6681854E+04  0.7180409E+01 -0.1038838E+02  0.1703013E+00  0.3334451E+01  0.1340181E+01  0.7047603E+02 -0.1164474E+01  0.4548260E+05  0.4260524E+02 -0.3772810E-01 -0.4081985E-02
  0.1302041E+01  0.6665167E+04  0.6447128E+01 -0.1021280E+02  0.2019651E+00  0.3304811E+01  0.1359706E+01  0.6928636E+02 -0.1380500E+01  0.4536776E+05  0.3664998E+02 -0.3741637E-01 -0.4116758E-02
  0.1340816E+01  0.6646431E+04  0.5195657E+01 -0.1006630E+02  0.2421750E+00  0.3276747E+01  0.1377732E+01  0.6828259E+02 -0.1654769E+01  0.4523888E+05  0.2710119E+02 -0.3708267E-01 -0.4150054E-02
  0.1379592E+01  0.6628650E+04  0.3240074E+01 -0.1009097E+02  0.2914755E+00  0.3264903E+01  0.1395086E+01  0.6844733E+02 -0.1990769E+01  0.4511638E+05  0.1269452E+02 -0.3681332E-01 -0.4173962E-02
  0.1418367E+01  0.6609929E+04  0.4310573E+00 -0.1015527E+02  0.3413309E+00  0.3265852E+01  0.1414955E+01  0.6887880E+02 -0.2330589E+01  0.4498755E+05 -0.7589172E+01 -0.3658840E-01 -0.4204217E-02
  0.1457143E+01  0.6590271E+04 -0.3317504E+01 -0.9957239E+01  0.3929162E+00  0.3254426E+01  0.1421930E+01  0.6753224E+02 -0.2681979E+01  0.4485264E+05 -0.3431655E+02 -0.3630501E-01 -0.4193658E-02
  0.1495918E+01  0.6568514E+04 -0.8050345E+01 -0.9768116E+01  0.4514205E+00  0.3227034E+01  0.1417986E+01  0.6624362E+02 -0.3080114E+01  0.4470333E+05 -0.6777242E+02 -0.3594604E-01 -0.4152430E-02
  0.1534694E+01  0.6548379E+04 -0.1405895E+02 -0.9718943E+01  0.5231218E+00  0.3232062E+01  0.1419804E+01  0.6590518E+02 -0.3568034E+01  0.4456496E+05 -0.1099320E+03 -0.3568786E-01 -0.4116775E-02
  0.1573469E+01  0.6527235E+04 -0.2144686E+02 -0.9829136E+01  0.6104326E+00  0.3243014E+01  0.1418418E+01  0.6664650E+02 -0.4162404E+01  0.4441975E+05 -0.1615014E+03 -0.3545129E-01 -0.4068823E-02
  0.1612245E+01  0.6505698E+04 -0.3033822E+02 -0.9816324E+01  0.6930913E+00  0.3258065E+01  0.1412997E+01  0.6655476E+02 -0.4724651E+01  0.4427211E+05 -0.2233117E+03 -0.3522000E-01 -0.4010777E-02
  0.1651020E+01  0.6482468E+04 -0.4075037E+02 -0.9503439E+01  0.7710128E+00  0.3240265E+01  0.1389180E+01  0.6442732E+02 -0.5254078E+01  0.4411301E+05 -0.2954449E+03 -0.3487763E-01 -0.3898751E-02
  0.1689796E+01  0.6458919E+04 -0.5285601E+02 -0.9341766E+01  0.8598341E+00  0.3243790E+01  0.1362989E+01  0.6333810E+02 -0.5857479E+01  0.4395169E+05 -0.3790609E+03 -0.3457102E-01 -0.3765172E-02
  0.1728571E+01  0.6437267E+04 -0.6692722E+02 -0.9364731E+01  0.9751512E+00  0.3263609E+01  0.1343789E+01  0.6348227E+02 -0.6641043E+01  0.4380318E+05 -0.4760008E+03 -0.3432915E-01 -0.3659108E-02
  0.1767347E+01  0.6414796E+04 -0.8298183E+02 -0.9496166E+01  0.1110117E+01  0.3295460E+01  0.1321525E+01  0.6436646E+02 -0.7558064E+01  0.4364907E+05 -0.5863865E+03 -0.3410724E-01 -0.3529533E-02
  0.1806122E+01  0.6392100E+04 -0.1010652E+03 -0.9505581E+01  0.1234874E+01  0.3326962E+01  0.1291821E+01  0.6442162E+02 -0.8405135E+01  0.4349366E+05 -0.7105081E+03 -0.3388110E-01 -0.3385295E-02
  0.1844898E+01  0.6368166E+04 -0.1211971E+03 -0.9173429E+01  0.1339891E+01  0.3331384E+01  0.1239032E+01  0.6216954E+02 -0.9117305E+01  0.4332990E+05 -0.8484638E+03 -0.3355578E-01 -0.3170886E-02
  0.1883674E+01  0.6343420E+04 -0.1433724E+03 -0.8953152E+01  0.1470324E+01  0.3346435E+01  0.1184816E+01  0.6067386E+02 -0.1000247E+02  0.4316064E+05 -0.1000198E+04 -0.3324378E-01 -0.2952560E-02
  0.1922449E+01  0.6322201E+04 -0.1684208E+03 -0.8953287E+01  0.1605158E+01  0.3386242E+01  0.1133788E+01  0.6067017E+02 -0.1091642E+02  0.4301513E+05 -0.1171339E+04 -0.3301311E-01 -0.2734988E-02
  0.1961224E+01  0.6300724E+04 -0.1957436E+03 -0.9053455E+01  0.1828923E+01  0.3434268E+01  0.1086216E+01  0.6134099E+02 -0.1243505E+02  0.4286787E+05 -0.1357832E+04 -0.3279543E-01 -0.2537153E-02
  0.2000000E+01  0.6279688E+04 -0.2256109E+03 -0.9167747E+01  0.2013043E+01  0.3500919E+01  0.1028488E+01  0.6210358E+02 -0.1368345E+02  0.4272363E+05 -0.1561495E+04 -0.3261775E-01 -0.2298373E-02
Zone t="Motion of body    1 in DoF   2",I=    50,F=POINT
  0.1000000E+00  0.1025513E+02  0.2245994E-06  0.6879714E+04  0.8288261E-07 -0.1190214E+00 -0.8482293E-04 -0.4685930E+05 -0.4757138E-06  0.6966246E+02  0.1606572E-05 -0.1651227E-02  0.2810498E-06
  0.1387755E+00  0.1024548E+02  0.6238887E-07  0.6878550E+04  0.1718494E-05 -0.1139532E+00 -0.2148077E-03 -0.4685120E+05 -0.7167317E-05  0.6960077E+02  0.4267985E-06 -0.1671016E-02  0.7111275E-06
  0.1775510E+00  0.1023270E+02  0.1243681E-05  0.6877146E+04  0.8096516E-04 -0.1216276E+00 -0.4688910E-03 -0.4684139E+05 -0.5345472E-03  0.6951497E+02  0.8854138E-05 -0.1641721E-02  0.1552291E-05
  0.2163265E+00  0.1022224E+02 -0.1281124E-05  0.6875379E+04  0.3033752E-03 -0.1220258E+00 -0.8350125E-03 -0.4682918E+05 -0.1998325E-02  0.6944286E+02 -0.8444631E-05 -0.1638979E-02  0.2757831E-05
  0.2551020E+00  0.1021490E+02  0.2475192E-05  0.6873831E+04  0.9198894E-03 -0.1194396E+00 -0.1310998E-02 -0.4681834E+05 -0.6043903E-02  0.6939223E+02  0.1753452E-04 -0.1648635E-02  0.4330515E-05
  0.2938775E+00  0.1020659E+02 -0.2493941E-05  0.6871470E+04  0.2504577E-02 -0.1231048E+00 -0.2017428E-02 -0.4680194E+05 -0.1646840E-01  0.6933609E+02 -0.1583160E-04 -0.1632035E-02  0.6647153E-05
  0.3326530E+00  0.1020609E+02  0.1382341E-05  0.6868364E+04  0.5816535E-02 -0.1225291E+00 -0.2817347E-02 -0.4678039E+05 -0.3823698E-01  0.6932617E+02  0.1086401E-04 -0.1644135E-02  0.9267847E-05
  0.3714286E+00  0.1019792E+02 -0.2376616E-04  0.6865256E+04  0.1227461E-01 -0.1255395E+00 -0.3918820E-02 -0.4675871E+05 -0.8066610E-01  0.6927113E+02 -0.1626553E-03 -0.1625508E-02  0.1287409E-04
  0.4102041E+00  0.1017972E+02 -0.5443750E-04  0.6861818E+04  0.2395456E-01 -0.1216217E+00 -0.4937749E-02 -0.4673481E+05 -0.1573617E+00  0.6914871E+02 -0.3729860E-03 -0.1636356E-02  0.1616740E-04
  0.4489796E+00  0.1017185E+02 -0.1117306E-03  0.6857266E+04  0.4361530E-01 -0.1299267E+00 -0.6703505E-02 -0.4670309E+05 -0.2863415E+00  0.6909479E+02 -0.7665147E-03 -0.1602381E-02  0.2193774E-04
  0.4877551E+00  0.1014832E+02 -0.1868464E-03  0.6852679E+04  0.7542239E-01 -0.1235318E+00 -0.7870689E-02 -0.4667119E+05 -0.4949395E+00  0.6893095E+02 -0.1286803E-02 -0.1625568E-02  0.2565914E-04
  0.5265306E+00  0.1012404E+02 -0.3884823E-03  0.6848393E+04  0.1237231E+00 -0.1250962E+00 -0.9662548E-02 -0.4664143E+05 -0.8112663E+00  0.6876408E+02 -0.2665980E-02 -0.1625687E-02  0.3143981E-04
  0.5653061E+00  0.1013387E+02 -0.5464928E-03  0.6843011E+04  0.1949692E+00 -0.1228771E+00 -0.1139814E-01 -0.4660393E+05 -0.1277434E+01  0.6883423E+02 -0.3756403E-02 -0.1619697E-02  0.3694074E-04
  0.6040816E+00  0.1008468E+02 -0.9051213E-03  0.6837274E+04  0.2966750E+00 -0.1192621E+00 -0.1286158E-01 -0.4656406E+05 -0.1942284E+01  0.6849823E+02 -0.6228888E-02 -0.1637340E-02  0.4149483E-04
  0.6428572E+00  0.1009233E+02 -0.1363948E-02  0.6831860E+04  0.4363330E+00 -0.1239877E+00 -0.1560799E-01 -0.4652636E+05 -0.2853952E+01  0.6854243E+02 -0.9395286E-02 -0.1609236E-02  0.5026631E-04
  0.6816327E+00  0.1004218E+02 -0.2383644E-02  0.6824818E+04  0.6233561E+00 -0.1229684E+00 -0.1753634E-01 -0.4647743E+05 -0.4073115E+01  0.6820009E+02 -0.1638409E-01 -0.1618057E-02  0.5614441E-04
  0.7204082E+00  0.1004683E+02 -0.3340866E-02  0.6818482E+04  0.8644106E+00 -0.1199766E+00 -0.1954351E-01 -0.4643331E+05 -0.5640933E+01  0.6823228E+02 -0.2298239E-01 -0.1618445E-02  0.6245069E-04
  0.7591837E+00  0.9963379E+01 -0.4874656E-02  0.6810486E+04  0.1171085E+01 -0.1222552E+00 -0.2221448E-01 -0.4637783E+05 -0.7632055E+01  0.6765744E+02 -0.3350857E-01 -0.1609325E-02  0.7052192E-04
  0.7979592E+00  0.9984493E+01 -0.7158780E-02  0.6802793E+04  0.1548124E+01 -0.1183702E+00 -0.2373373E-01 -0.4632425E+05 -0.1007338E+02  0.6779994E+02 -0.4918051E-01 -0.1619726E-02  0.7512808E-04
  0.8367347E+00  0.9901455E+01 -0.9432330E-02  0.6794344E+04  0.2002156E+01 -0.1144212E+00 -0.2526404E-01 -0.4626573E+05 -0.1300456E+02  0.6723199E+02 -0.6478855E-01 -0.1635551E-02  0.7940376E-04
  0.8755102E+00  0.9898438E+01 -0.1365599E-01  0.6785062E+04  0.2536133E+01 -0.1220465E+00 -0.2990474E-01 -0.4620116E+05 -0.1644013E+02  0.6720975E+02 -0.9374936E-01 -0.1593292E-02  0.9404412E-04
  0.9142857E+00  0.9868225E+01 -0.1810838E-01  0.6776168E+04  0.3140486E+01 -0.1148967E+00 -0.3019986E-01 -0.4613952E+05 -0.2030732E+02  0.6700246E+02 -0.1243019E+00 -0.1616210E-02  0.9377421E-04
  0.9530612E+00  0.9761749E+01 -0.2371072E-01  0.6765154E+04  0.3818988E+01 -0.1166943E+00 -0.3319875E-01 -0.4606321E+05 -0.2462780E+02  0.6627791E+02 -0.1626856E+00 -0.1606196E-02  0.1031003E-03
  0.9918368E+00  0.9784279E+01 -0.3191504E-01  0.6754304E+04  0.4546894E+01 -0.1155555E+00 -0.3391590E-01 -0.4598789E+05 -0.2922548E+02  0.6643025E+02 -0.2188398E+00 -0.1605451E-02  0.1031026E-03
  0.1030612E+01  0.9719166E+01 -0.3998717E-01  0.6743362E+04  0.5294895E+01 -0.1127409E+00 -0.3653496E-01 -0.4591220E+05 -0.3389387E+02  0.6598183E+02 -0.2740937E+00 -0.1604408E-02  0.1121357E-03
  0.1069388E+01  0.9632515E+01 -0.5021514E-01  0.6730226E+04  0.6051206E+01 -0.1139975E+00 -0.3790408E-01 -0.4582140E+05 -0.3855107E+02  0.6539142E+02 -0.3441636E+00 -0.1603544E-02  0.1139936E-03
  0.1108163E+01  0.9639534E+01 -0.6577171E-01  0.6717313E+04  0.6752842E+01 -0.1198748E+00 -0.4309886E-01 -0.4573194E+05 -0.4276162E+02  0.6543671E+02 -0.4503734E+00 -0.1565099E-02  0.1292961E-03
  0.1146939E+01  0.9608322E+01 -0.8087302E-01  0.6704122E+04  0.7336365E+01 -0.1101977E+00 -0.4128391E-01 -0.4564088E+05 -0.4608724E+02  0.6521680E+02 -0.5538140E+00 -0.1595020E-02  0.1233798E-03
  0.1185714E+01  0.9427750E+01 -0.9802558E-01  0.6688637E+04  0.7773737E+01 -0.1093833E+00 -0.4246093E-01 -0.4553413E+05 -0.4834141E+02  0.6399043E+02 -0.6709691E+00 -0.1603752E-02  0.1247499E-03
  0.1224490E+01  0.9428234E+01 -0.1210631E+00  0.6673500E+04  0.7966858E+01 -0.1151408E+00 -0.4454341E-01 -0.4542954E+05 -0.4885424E+02  0.6399171E+02 -0.8282129E+00 -0.1569599E-02  0.1289541E-03
  0.1263265E+01  0.9480675E+01 -0.1527598E+00  0.6657531E+04  0.7793713E+01 -0.1151136E+00 -0.4879090E-01 -0.4531939E+05 -0.4678902E+02  0.6433926E+02 -0.1044638E+01 -0.1557708E-02  0.1436382E-03
  0.1302041E+01  0.9330128E+01 -0.1799982E+00  0.6640785E+04  0.7182637E+01 -0.1096497E+00 -0.4720514E-01 -0.4520420E+05 -0.4166524E+02  0.6331685E+02 -0.1230498E+01 -0.1569778E-02  0.1379434E-03
  0.1340816E+01  0.9163403E+01 -0.2133210E+00  0.6622023E+04  0.6074503E+01 -0.1120163E+00 -0.4846555E-01 -0.4507512E+05 -0.3309089E+02  0.6217964E+02 -0.1457623E+01 -0.1563966E-02  0.1389771E-03
  0.1379592E+01  0.9166100E+01 -0.2538120E+00  0.6604070E+04  0.4283542E+01 -0.1187607E+00 -0.5282287E-01 -0.4495150E+05 -0.1980310E+02  0.6219463E+02 -0.1733743E+01 -0.1523435E-02  0.1523073E-03
  0.1418367E+01  0.9245472E+01 -0.3016353E+00  0.6585114E+04  0.1657578E+01 -0.1183267E+00 -0.5075997E-01 -0.4482110E+05 -0.7632048E+00  0.6272638E+02 -0.2059832E+01 -0.1519501E-02  0.1425698E-03
  0.1457143E+01  0.9073145E+01 -0.3497294E+00  0.6565364E+04 -0.1884181E+01 -0.1071761E+00 -0.4669461E-01 -0.4468556E+05  0.2455986E+02  0.6155334E+02 -0.2387280E+01 -0.1547307E-02  0.1317170E-03
  0.1495918E+01  0.8846930E+01 -0.3992128E+00  0.6543610E+04 -0.6390487E+01 -0.1144408E+00 -0.4980800E-01 -0.4453629E+05  0.5647851E+02  0.6001874E+02 -0.2724175E+01 -0.1526237E-02  0.1387854E-03
  0.1534694E+01  0.8853193E+01 -0.4614254E+00  0.6523265E+04 -0.1213626E+02 -0.1209630E+00 -0.5222941E-01 -0.4439654E+05  0.9685516E+02  0.6006052E+02 -0.3147884E+01 -0.1487941E-02  0.1435915E-03
  0.1573469E+01  0.8944393E+01 -0.5390456E+00  0.6501877E+04 -0.1924655E+02 -0.1248235E+00 -0.5565863E-01 -0.4424966E+05  0.1465418E+03  0.6067029E+02 -0.3675947E+01 -0.1462758E-02  0.1560857E-03
  0.1612245E+01  0.8911045E+01 -0.6200566E+00  0.6480079E+04 -0.2781607E+02 -0.1200813E+00 -0.5217906E-01 -0.4410029E+05  0.2061705E+03  0.6043550E+02 -0.4226859E+01 -0.1465052E-02  0.1461784E-03
  0.1651020E+01  0.8616268E+01 -0.6854040E+00  0.6456854E+04 -0.3788727E+02 -0.1128408E+00 -0.4740195E-01 -0.4394123E+05  0.2759944E+03  0.5843562E+02 -0.4671117E+01 -0.1480877E-02  0.1322425E-03
  0.1689796E+01  0.8462711E+01 -0.7732143E+00  0.6433175E+04 -0.4961062E+02 -0.1268096E+00 -0.5349363E-01 -0.4377904E+05  0.3570218E+03  0.5739270E+02 -0.5267849E+01 -0.1432329E-02  0.1486895E-03
  0.1728571E+01  0.8487581E+01 -0.8664184E+00  0.6411274E+04 -0.6328180E+02 -0.1331995E+00 -0.5611202E-01 -0.4362886E+05  0.4512538E+03  0.5755325E+02 -0.5901508E+01 -0.1404494E-02  0.1614477E-03
  0.1767347E+01  0.8615114E+01 -0.9848716E+00  0.6388460E+04 -0.7888253E+02 -0.1379151E+00 -0.6206644E-01 -0.4347246E+05  0.5585676E+03  0.5840973E+02 -0.6706182E+01 -0.1378059E-02  0.1854901E-03
  0.1806122E+01  0.8596767E+01 -0.1109127E+01  0.6365417E+04 -0.9648992E+02 -0.1286961E+00 -0.5826963E-01 -0.4331470E+05  0.6794691E+03  0.5828215E+02 -0.7549892E+01 -0.1386136E-02  0.1818590E-03
  0.1844898E+01  0.8285053E+01 -0.1203856E+01  0.6341431E+04 -0.1161143E+03 -0.1273937E+00 -0.5063152E-01 -0.4315063E+05  0.8139945E+03  0.5617389E+02 -0.8192977E+01 -0.1386315E-02  0.1545826E-03
  0.1883674E+01  0.8083231E+01 -0.1296957E+01  0.6316566E+04 -0.1377291E+03 -0.1395088E+00 -0.5245345E-01 -0.4298055E+05  0.9619421E+03  0.5480470E+02 -0.8823845E+01 -0.1353502E-02  0.1614891E-03
  0.1922449E+01  0.8064386E+01 -0.1454791E+01  0.6294951E+04 -0.1621607E+03 -0.1482679E+00 -0.5706462E-01 -0.4283241E+05  0.1128916E+04  0.5466969E+02 -0.9895048E+01 -0.1306236E-02  0.1834679E-03
  0.1961224E+01  0.8162310E+01 -0.1579396E+01  0.6273090E+04 -0.1888503E+03 -0.1534643E+00 -0.5554399E-01 -0.4268259E+05  0.1311133E+04  0.5532710E+02 -0.1073973E+02 -0.1288027E-02  0.1849369E-03
  0.2000000E+01  0.8254332E+01 -0.1786814E+01  0.6251557E+04 -0.2179997E+03 -0.1597871E+00 -0.5244507E-01 -0.4253498E+05  0.1509948E+04  0.5593877E+02 -0.1214581E+02 -0.1267165E-02  0.1767720E-03
Zone t="Motion of body    1 in DoF   3",I=    50,F=POINT
  0.1000000E+00 -0.5908208E+00 -0.2320863E-03  0.1163816E-01 -0.8195639E-08  0.1647052E+03  0.6373988E-01 -0.7814407E-01  0.3188848E-06 -0.4055454E+01 -0.1640549E-02 -0.2574522E+00 -0.2111729E-03
  0.1387755E+00 -0.5929046E+00 -0.6151162E-03  0.1138163E-01  0.3960060E-06  0.1651859E+03  0.1687657E+00 -0.7677078E-01 -0.2580759E-05 -0.4070038E+01 -0.4349283E-02 -0.2588725E+00 -0.5587853E-03
  0.1775510E+00 -0.5950360E+00 -0.1275964E-02  0.1163387E-01  0.1039767E-05  0.1656588E+03  0.3490317E+00 -0.7932663E-01 -0.6794200E-05 -0.4085052E+01 -0.9018359E-02 -0.2602523E+00 -0.1154707E-02
  0.2163265E+00 -0.5971198E+00 -0.2277173E-02  0.1162815E-01  0.1515053E-05  0.1661001E+03  0.6213803E+00 -0.7911301E-01 -0.1237830E-04 -0.4098324E+01 -0.1609785E-01 -0.2614386E+00 -0.2053643E-02
  0.2551020E+00 -0.5988626E+00 -0.3677105E-02  0.1188231E-01  0.3820323E-05  0.1664595E+03  0.9996628E+00 -0.7919693E-01 -0.2435884E-04 -0.4111088E+01 -0.2597692E-01 -0.2623484E+00 -0.3299845E-02
  0.2938775E+00 -0.6008520E+00 -0.5522189E-02  0.1182556E-01  0.7610905E-05  0.1667307E+03  0.1494281E+01 -0.8124161E-01 -0.5934579E-04 -0.4124542E+01 -0.3900525E-01 -0.2628890E+00 -0.4925614E-02
  0.3326530E+00 -0.6020336E+00 -0.7838571E-02  0.1180315E-01  0.1621903E-04  0.1668811E+03  0.2111789E+01 -0.8063507E-01 -0.1084970E-03 -0.4131828E+01 -0.5535774E-01 -0.2629758E+00 -0.6949911E-02
  0.3714286E+00 -0.6033192E+00 -0.1066441E-01  0.1223660E-01  0.2996496E-04  0.1668974E+03  0.2854753E+01 -0.8311081E-01 -0.1996040E-03 -0.4141628E+01 -0.7529447E-01 -0.2625749E+00 -0.9378031E-02
  0.4102041E+00 -0.6039200E+00 -0.1398832E-01  0.1208115E-01  0.4765318E-04  0.1667686E+03  0.3721710E+01 -0.8221817E-01 -0.2926184E-03 -0.4144257E+01 -0.9872048E-01 -0.2616460E+00 -0.1220147E-01
  0.4489796E+00 -0.6038413E+00 -0.1782086E-01  0.1257515E-01  0.5970439E-04  0.1664884E+03  0.4707361E+01 -0.8392334E-01 -0.4575106E-03 -0.4144169E+01 -0.1256925E+00 -0.2601743E+00 -0.1539880E-01
  0.4877551E+00 -0.6038642E+00 -0.2215944E-01  0.1242065E-01  0.8570564E-04  0.1660717E+03  0.5803242E+01 -0.8380127E-01 -0.6621546E-03 -0.4142891E+01 -0.1562299E+00 -0.2581834E+00 -0.1893812E-01
  0.5265306E+00 -0.6029444E+00 -0.2694138E-01  0.1266956E-01  0.1256288E-03  0.1655040E+03  0.6997730E+01 -0.8630753E-01 -0.8912963E-03 -0.4136620E+01 -0.1898386E+00 -0.2557273E+00 -0.2277697E-01
  0.5653061E+00 -0.6017728E+00 -0.3216816E-01  0.1245975E-01  0.1724167E-03  0.1647852E+03  0.8276106E+01 -0.8494186E-01 -0.1072575E-02 -0.4126455E+01 -0.2266948E+00 -0.2527045E+00 -0.2686230E-01
  0.6040816E+00 -0.6006994E+00 -0.3783248E-01  0.1239300E-01  0.2392603E-03  0.1639568E+03  0.9624146E+01 -0.8376694E-01 -0.1525217E-02 -0.4117989E+01 -0.2662652E+00 -0.2492891E+00 -0.3114462E-01
  0.6428572E+00 -0.5988426E+00 -0.4384220E-01  0.1308918E-01  0.3461966E-03  0.1629942E+03  0.1102371E+02 -0.8730316E-01 -0.2290147E-02 -0.4104094E+01 -0.3084338E+00 -0.2454351E+00 -0.3555959E-01
  0.6816327E+00 -0.5967627E+00 -0.5016812E-01  0.1293230E-01  0.3992154E-03  0.1619396E+03  0.1245903E+02 -0.8837891E-01 -0.2536517E-02 -0.4088373E+01 -0.3526864E+00 -0.2412317E+00 -0.4005378E-01
  0.7204082E+00 -0.5943155E+00 -0.5678283E-01  0.1312160E-01  0.4981002E-03  0.1607823E+03  0.1391201E+02 -0.8769035E-01 -0.3173414E-02 -0.4070005E+01 -0.3989834E+00 -0.2367179E+00 -0.4456417E-01
  0.7591837E+00 -0.5918760E+00 -0.6372762E-01  0.1340818E-01  0.6104343E-03  0.1595643E+03  0.1536841E+02 -0.9168243E-01 -0.4297747E-02 -0.4052464E+01 -0.4473849E+00 -0.2319711E+00 -0.4904432E-01
  0.7979592E+00 -0.5890620E+00 -0.7077266E-01  0.1335573E-01  0.7418732E-03  0.1582638E+03  0.1680931E+02 -0.8955765E-01 -0.5127572E-02 -0.4031174E+01 -0.4965519E+00 -0.2269622E+00 -0.5342788E-01
  0.8367347E+00 -0.5859494E+00 -0.7812569E-01  0.1331472E-01  0.8411626E-03  0.1569439E+03  0.1822782E+02 -0.9116554E-01 -0.5759765E-02 -0.4008438E+01 -0.5476804E+00 -0.2218977E+00 -0.5769720E-01
  0.8755102E+00 -0.5834918E+00 -0.8558150E-01  0.1371574E-01  0.1085750E-02  0.1555660E+03  0.1960196E+02 -0.9308052E-01 -0.7441923E-02 -0.3989479E+01 -0.5991913E+00 -0.2166006E+00 -0.6177415E-01
  0.9142857E+00 -0.5805454E+00 -0.9319218E-01  0.1394057E-01  0.1308114E-02  0.1541777E+03  0.2093080E+02 -0.9515762E-01 -0.8666992E-02 -0.3967752E+01 -0.6520796E+00 -0.2113408E+00 -0.6566162E-01
  0.9530612E+00 -0.5772352E+00 -0.1009330E+00  0.1382661E-01  0.1454370E-02  0.1527830E+03  0.2220095E+02 -0.9281540E-01 -0.1003528E-01 -0.3942942E+01 -0.7056405E+00 -0.2060338E+00 -0.6931702E-01
  0.9918368E+00 -0.5747793E+00 -0.1087756E+00  0.1370287E-01  0.1661691E-02  0.1513630E+03  0.2339676E+02 -0.9310913E-01 -0.1129770E-01 -0.3924612E+01 -0.7596532E+00 -0.2006343E+00 -0.7268544E-01
  0.1030612E+01 -0.5721455E+00 -0.1168863E+00  0.1449656E-01  0.2002472E-02  0.1499770E+03  0.2453190E+02 -0.9772301E-01 -0.1363140E-01 -0.3904741E+01 -0.8154456E+00 -0.1954126E+00 -0.7582252E-01
  0.1069388E+01 -0.5691564E+00 -0.1250248E+00  0.1428175E-01  0.2233084E-02  0.1485995E+03  0.2558652E+02 -0.9658051E-01 -0.1506315E-01 -0.3882011E+01 -0.8713415E+00 -0.1901958E+00 -0.7866213E-01
  0.1108163E+01 -0.5665543E+00 -0.1331231E+00  0.1433921E-01  0.2488167E-02  0.1472189E+03  0.2655021E+02 -0.9680176E-01 -0.1639561E-01 -0.3862820E+01 -0.9267029E+00 -0.1849588E+00 -0.8116814E-01
  0.1146939E+01 -0.5645707E+00 -0.1415365E+00  0.1464677E-01  0.2766782E-02  0.1458844E+03  0.2744374E+02 -0.9828186E-01 -0.1853673E-01 -0.3847244E+01 -0.9842877E+00 -0.1799465E+00 -0.8342129E-01
  0.1185714E+01 -0.5617111E+00 -0.1501389E+00  0.1426578E-01  0.3053262E-02  0.1445850E+03  0.2825455E+02 -0.9735298E-01 -0.2079175E-01 -0.3826290E+01 -0.1042885E+01 -0.1750431E+00 -0.8538367E-01
  0.1224490E+01 -0.5600600E+00 -0.1586449E+00  0.1444507E-01  0.3341120E-02  0.1432925E+03  0.2896632E+02 -0.9780693E-01 -0.2252034E-01 -0.3813005E+01 -0.1100608E+01 -0.1701284E+00 -0.8699468E-01
  0.1263265E+01 -0.5583725E+00 -0.1672833E+00  0.1492906E-01  0.3777173E-02  0.1420299E+03  0.2959455E+02 -0.1004143E+00 -0.2572971E-01 -0.3799234E+01 -0.1159389E+01 -0.1653842E+00 -0.8831684E-01
  0.1302041E+01 -0.5565424E+00 -0.1763139E+00  0.1551771E-01  0.4266715E-02  0.1408322E+03  0.3015375E+02 -0.1051693E+00 -0.2893339E-01 -0.3785425E+01 -0.1220887E+01 -0.1608707E+00 -0.8940935E-01
  0.1340816E+01 -0.5549150E+00 -0.1857193E+00  0.1484871E-01  0.4448285E-02  0.1396597E+03  0.3062389E+02 -0.1006374E+00 -0.3028095E-01 -0.3771950E+01 -0.1284423E+01 -0.1564344E+00 -0.9020109E-01
  0.1379592E+01 -0.5538187E+00 -0.1946383E+00  0.1495957E-01  0.4793849E-02  0.1385016E+03  0.3099479E+02 -0.1014671E+00 -0.3243812E-01 -0.3762972E+01 -0.1344334E+01 -0.1520215E+00 -0.9065770E-01
  0.1418367E+01 -0.5536025E+00 -0.2035774E+00  0.1514125E-01  0.4979989E-02  0.1373797E+03  0.3129094E+02 -0.1018295E+00 -0.3387333E-01 -0.3760124E+01 -0.1404785E+01 -0.1478010E+00 -0.9087341E-01
  0.1457143E+01 -0.5534933E+00 -0.2138152E+00  0.1563501E-01  0.5687795E-02  0.1363230E+03  0.3152673E+02 -0.1061172E+00 -0.3840061E-01 -0.3757441E+01 -0.1473195E+01 -0.1438144E+00 -0.9090563E-01
  0.1495918E+01 -0.5522842E+00 -0.2241636E+00  0.1503682E-01  0.5854131E-02  0.1352943E+03  0.3168298E+02 -0.1019058E+00 -0.3942604E-01 -0.3747334E+01 -0.1543004E+01 -0.1399226E+00 -0.9068680E-01
  0.1534694E+01 -0.5532827E+00 -0.2343629E+00  0.1471353E-01  0.6410560E-02  0.1342735E+03  0.3174129E+02 -0.9899712E-01 -0.4318127E-01 -0.3752649E+01 -0.1611509E+01 -0.1360369E+00 -0.9015650E-01
  0.1573469E+01 -0.5534403E+00 -0.2438472E+00  0.1474857E-01  0.6917099E-02  0.1332743E+03  0.3171898E+02 -0.9973526E-01 -0.4664245E-01 -0.3752077E+01 -0.1675028E+01 -0.1322628E+00 -0.8937913E-01
  0.1612245E+01 -0.5550044E+00 -0.2545952E+00  0.1595140E-01  0.7357304E-02  0.1323354E+03  0.3165810E+02 -0.1080627E+00 -0.4963309E-01 -0.3761108E+01 -0.1746876E+01 -0.1287576E+00 -0.8850821E-01
  0.1651020E+01 -0.5554903E+00 -0.2660950E+00  0.1558995E-01  0.7539074E-02  0.1314381E+03  0.3153504E+02 -0.1061134E+00 -0.5099213E-01 -0.3762616E+01 -0.1823569E+01 -0.1253918E+00 -0.8746617E-01
  0.1689796E+01 -0.5572336E+00 -0.2777234E+00  0.1534843E-01  0.7664063E-02  0.1305522E+03  0.3133335E+02 -0.1040516E+00 -0.5186178E-01 -0.3773070E+01 -0.1901512E+01 -0.1220685E+00 -0.8619831E-01
  0.1728571E+01 -0.5596926E+00 -0.2893439E+00  0.1479459E-01  0.8144076E-02  0.1296707E+03  0.3104347E+02 -0.1002617E+00 -0.5518994E-01 -0.3787450E+01 -0.1979006E+01 -0.1187526E+00 -0.8467538E-01
  0.1767347E+01 -0.5623336E+00 -0.3001038E+00  0.1508689E-01  0.8929322E-02  0.1288024E+03  0.3068430E+02 -0.1020069E+00 -0.5996240E-01 -0.3804246E+01 -0.2050372E+01 -0.1155249E+00 -0.8296058E-01
  0.1806122E+01 -0.5656686E+00 -0.3119128E+00  0.1569843E-01  0.9917021E-02  0.1279869E+03  0.3029893E+02 -0.1062031E+00 -0.6685872E-01 -0.3825473E+01 -0.2128975E+01 -0.1125400E+00 -0.8121743E-01
  0.1844898E+01 -0.5692558E+00 -0.3255803E+00  0.1722300E-01  0.1055208E-01  0.1272087E+03  0.2986293E+02 -0.1159439E+00 -0.7104850E-01 -0.3847911E+01 -0.2220306E+01 -0.1096764E+00 -0.7936251E-01
  0.1883674E+01 -0.5735400E+00 -0.3392858E+00  0.1582682E-01  0.9926294E-02  0.1264433E+03  0.2936928E+02 -0.1068935E+00 -0.6756572E-01 -0.3875419E+01 -0.2311309E+01 -0.1068608E+00 -0.7736830E-01
  0.1922449E+01 -0.5794163E+00 -0.3533453E+00  0.1533473E-01  0.1099507E-01  0.1256691E+03  0.2879113E+02 -0.1039829E+00 -0.7422205E-01 -0.3913444E+01 -0.2405017E+01 -0.1040338E+00 -0.7516877E-01
  0.1961224E+01 -0.5845029E+00 -0.3661097E+00  0.1475978E-01  0.1048552E-01  0.1249001E+03  0.2815182E+02 -0.1000576E+00 -0.7104692E-01 -0.3946250E+01 -0.2489501E+01 -0.1012496E+00 -0.7283033E-01
  0.2000000E+01 -0.5928075E+00 -0.3800908E+00  0.1571095E-01  0.1185417E-01  0.1241488E+03  0.2746989E+02 -0.1067257E+00 -0.7976913E-01 -0.4000623E+01 -0.2581980E+01 -0.9859482E-01 -0.7042496E-01
Zone t="Motion of body    1 in DoF   4",I=    50,F=POINT
  0.1000000E+00 -0.7224768E+02 -0.2767242E-05 -0.4717760E+05  0.4037819E-05  0.8336859E+00  0.5945001E-03  0.3215056E+06 -0.2845978E-04 -0.4907999E+03 -0.1951749E-04  0.1131630E-01 -0.1971385E-05