VARIABLES="w (rad/s)"  
"abs(F   1   1)" "angle(F   1   1)"
"abs(F   1   2)" "angle(F   1   2)"
"abs(F   1   3)" "angle(F   1   3)"
"abs(F   1   4)" "angle(F   1   4)"
"abs(F   1   5)" "angle(F   1   5)"
"abs(F   1   6)" "angle(F   1   6)"
Zone t="Diffraction force - beta =   0.000 deg",I=    50,F=POINT
  0.1000000E+00  0.5883888E+04 -0.1570795E+01  0.3339201E-03  0.3304209E+00  0.2764448E+04 -0.3130682E+01  0.1053277E-02  0.3113339E+01  0.1808090E+05 -0.1570796E+01  0.1678575E-04 -0.1559433E+01
  0.1387755E+00  0.1130521E+05 -0.1570790E+01  0.2186456E-03 -0.1579876E+01  0.5314130E+04 -0.3121071E+01  0.4255445E-02 -0.3025138E+01  0.3479302E+05 -0.1570790E+01  0.4661308E-04 -0.1536719E+01
  0.1775510E+00  0.1844992E+05 -0.1570771E+01  0.8593826E-03 -0.2805885E+01  0.8654465E+04 -0.3108947E+01  0.1554673E-03 -0.1177346E+01  0.5689683E+05 -0.1570770E+01  0.8670541E-04 -0.1586420E+01
  0.2163265E+00  0.2728870E+05 -0.1570713E+01  0.1125291E-02 -0.2006892E+01  0.1273497E+05 -0.3094702E+01  0.7207857E-02  0.3103115E+01  0.8436538E+05 -0.1570713E+01  0.3964159E-03  0.1610359E+01
  0.2551020E+00  0.3779078E+05 -0.1570578E+01  0.1358949E-02  0.2161282E+01  0.1747902E+05 -0.3078725E+01  0.6818522E-02 -0.1686371E+01  0.1171883E+06 -0.1570576E+01  0.1635131E-03 -0.1552941E+01
  0.2938775E+00  0.4992046E+05 -0.1570296E+01  0.2573946E-02 -0.5519974E+00  0.2279561E+05 -0.3061421E+01  0.3626669E-01 -0.2606220E+01  0.1553496E+06 -0.1570292E+01  0.2693891E-03 -0.1520838E+01
  0.3326530E+00  0.6364598E+05 -0.1569771E+01  0.6650456E-02  0.1701684E+01  0.2857002E+05 -0.3043150E+01  0.6595773E-02  0.1703551E+01  0.1988662E+06 -0.1569763E+01  0.3964391E-04  0.2265535E+01
  0.3714286E+00  0.7893497E+05 -0.1568867E+01  0.4830128E-02  0.7876799E+00  0.3467897E+05 -0.3024257E+01  0.2514151E-01  0.4508536E-02  0.2477680E+06 -0.1568852E+01  0.7027820E-03  0.1574829E+01
  0.4102041E+00  0.9575983E+05 -0.1567407E+01  0.8032558E-02  0.2743070E+01  0.4098972E+05 -0.3005042E+01  0.1981991E-01 -0.2363787E+01  0.3021169E+06 -0.1567380E+01  0.1089392E-02  0.1593781E+01
  0.4489796E+00  0.1140959E+06 -0.1565171E+01  0.1328030E-01  0.1953841E+01  0.4736573E+05 -0.2985757E+01  0.5121171E-01  0.5703408E+00  0.3620010E+06 -0.1565125E+01  0.1438751E-02  0.1561273E+01
  0.4877551E+00  0.1339169E+06 -0.1561896E+01  0.3379644E-02  0.8395363E+00  0.5368520E+05 -0.2966655E+01  0.2673534E-01  0.1212417E+01  0.4275074E+06 -0.1561824E+01  0.9243457E-04  0.6998929E+00
  0.5265306E+00  0.1551997E+06 -0.1557280E+01  0.3867083E-02  0.4864132E+00  0.5982105E+05 -0.2947901E+01  0.5706649E-01  0.8363905E+00  0.4987698E+06 -0.1557170E+01  0.8365239E-03  0.1618836E+01
  0.5653061E+00  0.1779068E+06 -0.1550984E+01  0.9260821E-02 -0.2689505E+01  0.6563862E+05 -0.2929544E+01  0.6727271E-01 -0.2881188E+01  0.5758973E+06 -0.1550824E+01  0.3398205E-03 -0.1152572E+01
  0.6040816E+00  0.2019842E+06 -0.1542644E+01  0.2726155E-01  0.1521665E+01  0.7106344E+05 -0.2911785E+01  0.1267557E+00 -0.9344509E+00  0.6589106E+06 -0.1542418E+01  0.1405428E-02  0.1492012E+01
  0.6428572E+00  0.2273637E+06 -0.1531877E+01  0.2150168E-01  0.1394472E+01  0.7598343E+05 -0.2894585E+01  0.1142871E+00 -0.2672418E+01  0.7478721E+06 -0.1531568E+01  0.1812584E-02 -0.1478667E+01
  0.6816327E+00  0.2539104E+06 -0.1518294E+01  0.1702437E-01 -0.1243636E+01  0.8034147E+05 -0.2878038E+01  0.1036135E+00 -0.1977850E+01  0.8425671E+06 -0.1517881E+01  0.1952073E-02  0.1769237E+01
  0.7204082E+00  0.2814712E+06 -0.1501515E+01  0.1032504E-01  0.2510761E+01  0.8406948E+05 -0.2862109E+01  0.1067254E+00  0.1042247E+01  0.9427692E+06 -0.1500978E+01  0.2947666E-02 -0.1604366E+01
  0.7591837E+00  0.3097819E+06 -0.1481182E+01  0.2895037E-01  0.1476423E+01  0.8713280E+05 -0.2846825E+01  0.2356026E+00  0.3016774E+01  0.1047816E+07 -0.1480497E+01  0.2780431E-02  0.1583296E+01
  0.7979592E+00  0.3385364E+06 -0.1456980E+01  0.3609836E-01 -0.3171129E-01  0.8948273E+05 -0.2832071E+01  0.1072833E+00  0.2510894E+01  0.1156961E+07 -0.1456126E+01  0.5864686E-03 -0.7266423E+00
  0.8367347E+00  0.3672899E+06 -0.1428656E+01  0.3850637E-01 -0.2588634E+01  0.9114109E+05 -0.2817999E+01  0.5346165E-01  0.2767251E+00  0.1268800E+07 -0.1427606E+01  0.8298912E-03  0.1038292E+01
  0.8755102E+00  0.3955122E+06 -0.1396040E+01  0.1971576E-01  0.3062911E+01  0.9205539E+05 -0.2804334E+01  0.1908079E+00 -0.1756987E+01  0.1381748E+07 -0.1394772E+01  0.2754075E-03  0.2743070E+01
  0.9142857E+00  0.4225563E+06 -0.1359071E+01  0.4317204E-01  0.1551568E+01  0.9229508E+05 -0.2791337E+01  0.1041433E+00 -0.6171350E+00  0.1493551E+07 -0.1357560E+01  0.1119749E-02 -0.2369410E+01
  0.9530612E+00  0.4476765E+06 -0.1317819E+01  0.7911915E-02  0.2388693E+01  0.9184402E+05 -0.2778812E+01  0.9241955E-01 -0.2626975E+01  0.1601564E+07 -0.1316042E+01  0.2181384E-02  0.1854590E+01
  0.9918368E+00  0.4700798E+06 -0.1272506E+01  0.7652497E-01 -0.1673060E+01  0.9072377E+05 -0.2766670E+01  0.1348780E+00  0.1028183E+01  0.1702858E+07 -0.1270445E+01  0.2957996E-02 -0.2020715E+01
  0.1030612E+01  0.4889078E+06 -0.1223506E+01  0.4810967E-01  0.2531813E+01  0.8903707E+05 -0.2755229E+01  0.7983097E-01 -0.1286057E+01  0.1793934E+07 -0.1221134E+01  0.2063391E-02  0.9151007E+00
  0.1069388E+01  0.5033804E+06 -0.1171362E+01  0.5871936E-01  0.1366909E+01  0.8677842E+05 -0.2744212E+01  0.1554764E+00 -0.3079842E+01  0.1871542E+07 -0.1168659E+01  0.3278594E-02 -0.1666751E+01
  0.1108163E+01  0.5128344E+06 -0.1116763E+01  0.2783973E-01 -0.2554379E+00  0.8400355E+05 -0.2733601E+01  0.1467559E+00  0.2283947E+01  0.1932612E+07 -0.1113711E+01  0.2285250E-02  0.1785299E+00
  0.1146939E+01  0.5167571E+06 -0.1060486E+01  0.1956278E-01  0.2464896E+01  0.8083264E+05 -0.2723712E+01  0.1224722E+00 -0.2880567E+01  0.1974367E+07 -0.1057059E+01  0.7009104E-03  0.1520838E+01
  0.1185714E+01  0.5149000E+06 -0.1003388E+01  0.1701102E-01 -0.2734816E+01  0.7728349E+05 -0.2714337E+01  0.1207050E+00 -0.1355850E+01  0.1995027E+07 -0.9995654E+00  0.3662437E-02  0.3022752E+01
  0.1224490E+01  0.5072644E+06 -0.9463163E+00  0.1292381E+00 -0.1226917E+01  0.7342015E+05 -0.2705468E+01  0.4169678E-01  0.1283202E+01  0.1993630E+07 -0.9420794E+00  0.3012742E-02 -0.4081491E+00
  0.1263265E+01  0.4941284E+06 -0.8900782E+00  0.6248914E-01 -0.1164568E+01  0.6933435E+05 -0.2697233E+01  0.1635294E+00 -0.8568897E+00  0.1970185E+07 -0.8854017E+00  0.2076167E-02  0.2916882E+01
  0.1302041E+01  0.4759466E+06 -0.8353621E+00  0.2300555E-01 -0.2071142E+01  0.6509705E+05 -0.2689693E+01  0.2658609E-01 -0.5645798E+00  0.1925487E+07 -0.8302132E+00  0.3472280E-02 -0.5276626E+00
  0.1340816E+01  0.4533592E+06 -0.7827427E+00  0.6588257E-01  0.2282732E+01  0.6074823E+05 -0.2682777E+01  0.2680970E+00 -0.2011303E+01  0.1861185E+07 -0.7770888E+00  0.6110978E-02  0.3556359E+00
  0.1379592E+01  0.4270943E+06 -0.7326472E+00  0.1064782E+00  0.1634103E+01  0.5635036E+05 -0.2676508E+01  0.4645970E-01 -0.2673892E+01  0.1779391E+07 -0.7264582E+00  0.1925784E-02  0.1293998E+01
  0.1418367E+01  0.3979057E+06 -0.6853539E+00  0.1142728E-01 -0.1570323E+01  0.5197746E+05 -0.2670983E+01  0.5641517E-01  0.7001168E+00  0.1682424E+07 -0.6785834E+00  0.5554176E-02 -0.3834007E+00
  0.1457143E+01  0.3665101E+06 -0.6409997E+00  0.2488382E-01 -0.2521895E+01  0.4767311E+05 -0.2666209E+01  0.5806509E-01  0.6471389E+00  0.1572691E+07 -0.6335819E+00  0.8053582E-03  0.1106572E+00
  0.1495918E+01  0.3335880E+06 -0.5996321E+00  0.2074992E-01  0.1257365E+00  0.4346910E+05 -0.2662197E+01  0.2345587E+00  0.1953462E+01  0.1452620E+07 -0.5914907E+00  0.1728584E-02 -0.2646198E+01
  0.1534694E+01  0.2997310E+06 -0.5611820E+00  0.4571237E-01  0.1635260E+01  0.3940570E+05 -0.2658988E+01  0.9434590E-01  0.1396415E+01  0.1324431E+07 -0.5522292E+00  0.4777701E-03 -0.2512796E+01
  0.1573469E+01  0.2654682E+06 -0.5255412E+00  0.1099497E+00 -0.1702193E+01  0.3551789E+05 -0.2656667E+01  0.2419965E+00 -0.1120538E+01  0.1190156E+07 -0.5156452E+00  0.7742746E-03 -0.1243550E+00
  0.1612245E+01  0.2312162E+06 -0.4924825E+00  0.2853943E-02 -0.2733871E+01  0.3183641E+05 -0.2655266E+01  0.2992512E+00 -0.1731755E+01  0.1051525E+07 -0.4814551E+00  0.9075700E-03  0.2568627E+01
  0.1651020E+01  0.1973357E+06 -0.4617729E+00  0.1105817E+00  0.1505137E+01  0.2836780E+05 -0.2654860E+01  0.5289738E-01  0.9903394E+00  0.9101721E+06 -0.4493364E+00  0.2154223E-02 -0.2953371E+01
  0.1689796E+01  0.1641202E+06 -0.4330900E+00  0.1856868E-01  0.1549966E+01  0.2512623E+05 -0.2655578E+01  0.2278670E+00 -0.1487247E+01  0.7674828E+06 -0.4188201E+00  0.3100977E-02 -0.6656817E-01
  0.1728571E+01  0.1318064E+06 -0.4059886E+00  0.2025328E-01  0.1841046E+01  0.2212228E+05 -0.2657587E+01  0.2699968E+00 -0.1490482E+01  0.6246944E+06 -0.3891957E+00  0.6672635E-03  0.3217506E+00
  0.1767347E+01  0.1005863E+06 -0.3797286E+00  0.4256717E-01  0.1546720E+01  0.1935868E+05 -0.2661135E+01  0.2411787E+00  0.1614614E+01  0.4828818E+06 -0.3591216E+00  0.1206027E-03  0.2034444E+01
  0.1806122E+01  0.7060739E+05 -0.3526661E+00  0.2152885E-01 -0.1625869E+01  0.1683073E+05 -0.2666536E+01  0.6234040E+00  0.1507792E+01  0.3430066E+06 -0.3254170E+00  0.7949302E-03 -0.2553590E+01
  0.1844898E+01  0.4199801E+05 -0.3195950E+00  0.3424706E-03  0.1405648E+01  0.1453167E+05 -0.2674284E+01  0.4373586E-01  0.1191590E+01  0.2060495E+06 -0.2773770E+00  0.3378109E-03 -0.1570796E+01
  0.1883674E+01  0.1488322E+05 -0.2399613E+00  0.4051534E-01  0.1618346E+01  0.1245483E+05 -0.2685142E+01  0.2631907E+00  0.1610108E+01  0.7341891E+05 -0.1296761E+00  0.1955340E-02 -0.1541393E+01
  0.1922449E+01  0.1089575E+05  0.2691472E+01  0.5622158E-02  0.2920660E+01  0.1058904E+05 -0.2700392E+01  0.6752685E-01  0.1893199E+01  0.5915346E+05  0.2577914E+01  0.1412924E-02  0.8441540E+00
  0.1961224E+01  0.3484450E+05  0.2796584E+01  0.7781657E-02 -0.1555413E+01  0.8918153E+04 -0.2722476E+01  0.1139561E+00 -0.1440552E+01  0.1821712E+06  0.2762863E+01  0.1960547E-02  0.1355439E+01
  0.2000000E+01  0.5718552E+05  0.2826486E+01  0.3738323E-01 -0.1449682E+01  0.7416432E+04 -0.2756766E+01  0.4914754E-01 -0.1394706E+01  0.3005763E+06  0.2808830E+01  0.1220703E-03  0.0000000E+00
