 VARIABLES="X" "Y" "Z" "abs(p) (Pa)" "angle(p) (rad)"
ZONE N=   1080,E =     600, F=FEPOINT, ET=QUADRILATERAL
   4.82962894       1.29409504      -10.0000000       469.667084       1.67427003    
   4.82962894       1.29409504      -9.00000000       469.667084       1.67427003    
   4.91481400      0.647047520      -9.00000000       469.667084       1.67427003    
   4.91481400      0.647047520      -10.0000000       469.667084       1.67427003    
   4.82962894       1.29409504      -9.00000000       563.792725       1.66866434    
   4.82962894       1.29409504      -8.00000000       563.792725       1.66866434    
   4.91481400      0.647047520      -8.00000000       563.792725       1.66866434    
   4.91481400      0.647047520      -9.00000000       563.792725       1.66866434    
   4.82962894       1.29409504      -8.00000000       807.413086       1.64511299    
   4.82962894       1.29409504      -7.00000000       807.413086       1.64511299    
   4.91481400      0.647047520      -7.00000000       807.413086       1.64511299    
   4.91481400      0.647047520      -8.00000000       807.413086       1.64511299    
   4.82962894       1.29409504      -7.00000000       1113.47205       1.62847710    
   4.82962894       1.29409504      -6.00000000       1113.47205       1.62847710    
   4.91481400      0.647047520      -6.00000000       1113.47205       1.62847710    
   4.91481400      0.647047520      -7.00000000       1113.47205       1.62847710    
   4.82962894       1.29409504      -6.00000000       1451.51062       1.61774111    
   4.82962894       1.29409504      -5.00000000       1451.51062       1.61774111    
   4.91481400      0.647047520      -5.00000000       1451.51062       1.61774111    
   4.91481400      0.647047520      -6.00000000       1451.51062       1.61774111    
   4.82962894       1.29409504      -5.00000000       1803.66980       1.61066246    
   4.82962894       1.29409504      -4.00000000       1803.66980       1.61066246    
   4.91481400      0.647047520      -4.00000000       1803.66980       1.61066246    
   4.91481400      0.647047520      -5.00000000       1803.66980       1.61066246    
   4.82962894       1.29409504      -4.00000000       2155.12500       1.60587227    
   4.82962894       1.29409504      -3.00000000       2155.12500       1.60587227    
   4.91481400      0.647047520      -3.00000000       2155.12500       1.60587227    
   4.91481400      0.647047520      -4.00000000       2155.12500       1.60587227    
   4.82962894       1.29409504      -3.00000000       2491.52466       1.60260797    
   4.82962894       1.29409504      -2.00000000       2491.52466       1.60260797    
   4.91481400      0.647047520      -2.00000000       2491.52466       1.60260797    
   4.91481400      0.647047520      -3.00000000       2491.52466       1.60260797    
   4.82962894       1.29409504      -2.00000000       2796.24829       1.60045159    
   4.82962894       1.29409504      -1.00000000       2796.24829       1.60045159    
   4.91481400      0.647047520      -1.00000000       2796.24829       1.60045159    
   4.91481400      0.647047520      -2.00000000       2796.24829       1.60045159    
   4.82962894       1.29409504      -1.00000000       3040.73804       1.59927404    
   4.82962894       1.29409504       0.00000000       3040.73804       1.59927404    
   4.91481400      0.647047520       0.00000000       3040.73804       1.59927404    
   4.91481400      0.647047520      -1.00000000       3040.73804       1.59927404    
   4.91481400      0.647047520      -10.0000000       143.407700       1.69085884    
   4.91481400      0.647047520      -9.00000000       143.407700       1.69085884    
   5.00000000       0.00000000      -9.00000000       143.407700       1.69085884    
   5.00000000       0.00000000      -10.0000000       143.407700       1.69085884    
   4.91481400      0.647047520      -9.00000000       187.451859       1.67533290    
   4.91481400      0.647047520      -8.00000000       187.451859       1.67533290    
   5.00000000       0.00000000      -8.00000000       187.451859       1.67533290    
   5.00000000       0.00000000      -9.00000000       187.451859       1.67533290    
   4.91481400      0.647047520      -8.00000000       287.236511       1.64498341    
   4.91481400      0.647047520      -7.00000000       287.236511       1.64498341    
   5.00000000       0.00000000      -7.00000000       287.236511       1.64498341    
   5.00000000       0.00000000      -8.00000000       287.236511       1.64498341    
   4.91481400      0.647047520      -7.00000000       409.328766       1.62652683    
   4.91481400      0.647047520      -6.00000000       409.328766       1.62652683    
   5.00000000       0.00000000      -6.00000000       409.328766       1.62652683    
   5.00000000       0.00000000      -7.00000000       409.328766       1.62652683    
   4.91481400      0.647047520      -6.00000000       542.951294       1.61536980    
   4.91481400      0.647047520      -5.00000000       542.951294       1.61536980    
   5.00000000       0.00000000      -5.00000000       542.951294       1.61536980    
   5.00000000       0.00000000      -6.00000000       542.951294       1.61536980    
   4.91481400      0.647047520      -5.00000000       681.537109       1.60827219    
   4.91481400      0.647047520      -4.00000000       681.537109       1.60827219    
   5.00000000       0.00000000      -4.00000000       681.537109       1.60827219    
   5.00000000       0.00000000      -5.00000000       681.537109       1.60827219    
   4.91481400      0.647047520      -4.00000000       820.152649       1.60353589    
   4.91481400      0.647047520      -3.00000000       820.152649       1.60353589    
   5.00000000       0.00000000      -3.00000000       820.152649       1.60353589    
   5.00000000       0.00000000      -4.00000000       820.152649       1.60353589    
   4.91481400      0.647047520      -3.00000000       953.194763       1.60033607    
   4.91481400      0.647047520      -2.00000000       953.194763       1.60033607    
   5.00000000       0.00000000      -2.00000000       953.194763       1.60033607    
   5.00000000       0.00000000      -3.00000000       953.194763       1.60033607    
   4.91481400      0.647047520      -2.00000000       1074.99463       1.59819674    
   4.91481400      0.647047520      -1.00000000       1074.99463       1.59819674    
   5.00000000       0.00000000      -1.00000000       1074.99463       1.59819674    
   5.00000000       0.00000000      -2.00000000       1074.99463       1.59819674    
   4.91481400      0.647047520      -1.00000000       1174.15698       1.59698212    
   4.91481400      0.647047520       0.00000000       1174.15698       1.59698212    
   5.00000000       0.00000000       0.00000000       1174.15698       1.59698212    
   5.00000000       0.00000000      -1.00000000       1174.15698       1.59698212    
   4.33012676       2.50000000      -10.0000000       1050.71802       1.67652690    
   4.33012676       2.50000000      -9.00000000       1050.71802       1.67652690    
   4.57987785       1.89704800      -9.00000000       1050.71802       1.67652690    
   4.57987785       1.89704800      -10.0000000       1050.71802       1.67652690    
   4.33012676       2.50000000      -9.00000000       1276.61804       1.66964424    
   4.33012676       2.50000000      -8.00000000       1276.61804       1.66964424    
   4.57987785       1.89704800      -8.00000000       1276.61804       1.66964424    
   4.57987785       1.89704800      -9.00000000       1276.61804       1.66964424    
   4.33012676       2.50000000      -8.00000000       1847.03979       1.64509606    
   4.33012676       2.50000000      -7.00000000       1847.03979       1.64509606    
   4.57987785       1.89704800      -7.00000000       1847.03979       1.64509606    
   4.57987785       1.89704800      -8.00000000       1847.03979       1.64509606    
   4.33012676       2.50000000      -7.00000000       2560.38354       1.62816358    
   4.33012676       2.50000000      -6.00000000       2560.38354       1.62816358    
   4.57987785       1.89704800      -6.00000000       2560.38354       1.62816358    
   4.57987785       1.89704800      -7.00000000       2560.38354       1.62816358    
   4.33012676       2.50000000      -6.00000000       3347.05737       1.61735690    
   4.33012676       2.50000000      -5.00000000       3347.05737       1.61735690    
   4.57987785       1.89704800      -5.00000000       3347.05737       1.61735690    
   4.57987785       1.89704800      -6.00000000       3347.05737       1.61735690    
   4.33012676       2.50000000      -5.00000000       4165.95557       1.61027277    
   4.33012676       2.50000000      -4.00000000       4165.95557       1.61027277    
   4.57987785       1.89704800      -4.00000000       4165.95557       1.61027277    
   4.57987785       1.89704800      -5.00000000       4165.95557       1.61027277    
   4.33012676       2.50000000      -4.00000000       4983.55127       1.60548973    
   4.33012676       2.50000000      -3.00000000       4983.55127       1.60548973    
   4.57987785       1.89704800      -3.00000000       4983.55127       1.60548973    
   4.57987785       1.89704800      -4.00000000       4983.55127       1.60548973    
   4.33012676       2.50000000      -3.00000000       5766.46387       1.60223126    
   4.33012676       2.50000000      -2.00000000       5766.46387       1.60223126    
   4.57987785       1.89704800      -2.00000000       5766.46387       1.60223126    
   4.57987785       1.89704800      -3.00000000       5766.46387       1.60223126    
   4.33012676       2.50000000      -2.00000000       6476.93848       1.60007644    
   4.33012676       2.50000000      -1.00000000       6476.93848       1.60007644    
   4.57987785       1.89704800      -1.00000000       6476.93848       1.60007644    
   4.57987785       1.89704800      -2.00000000       6476.93848       1.60007644    
   4.33012676       2.50000000      -1.00000000       7048.42236       1.59889078    
   4.33012676       2.50000000       0.00000000       7048.42236       1.59889078    
   4.57987785       1.89704800       0.00000000       7048.42236       1.59889078    
   4.57987785       1.89704800      -1.00000000       7048.42236       1.59889078    
   4.57987785       1.89704800      -10.0000000       746.683594       1.68041539    
   4.57987785       1.89704800      -9.00000000       746.683594       1.68041539    
   4.82962894       1.29409504      -9.00000000       746.683594       1.68041539    
   4.82962894       1.29409504      -10.0000000       746.683594       1.68041539    
   4.57987785       1.89704800      -9.00000000       925.919128       1.67127192    
   4.57987785       1.89704800      -8.00000000       925.919128       1.67127192    
   4.82962894       1.29409504      -8.00000000       925.919128       1.67127192    
   4.82962894       1.29409504      -9.00000000       925.919128       1.67127192    
   4.57987785       1.89704800      -8.00000000       1362.31299       1.64506483    
   4.57987785       1.89704800      -7.00000000       1362.31299       1.64506483    
   4.82962894       1.29409504      -7.00000000       1362.31299       1.64506483    
   4.82962894       1.29409504      -8.00000000       1362.31299       1.64506483    
   4.57987785       1.89704800      -7.00000000       1904.23376       1.62766480    
   4.57987785       1.89704800      -6.00000000       1904.23376       1.62766480    
   4.82962894       1.29409504      -6.00000000       1904.23376       1.62766480    
   4.82962894       1.29409504      -7.00000000       1904.23376       1.62766480    
   4.57987785       1.89704800      -6.00000000       2500.40845       1.61674917    
   4.57987785       1.89704800      -5.00000000       2500.40845       1.61674917    
   4.82962894       1.29409504      -5.00000000       2500.40845       1.61674917    
   4.82962894       1.29409504      -6.00000000       2500.40845       1.61674917    
   4.57987785       1.89704800      -5.00000000       3120.29395       1.60965514    
   4.57987785       1.89704800      -4.00000000       3120.29395       1.60965514    
   4.82962894       1.29409504      -4.00000000       3120.29395       1.60965514    
   4.82962894       1.29409504      -5.00000000       3120.29395       1.60965514    
   4.57987785       1.89704800      -4.00000000       3739.54004       1.60488379    
   4.57987785       1.89704800      -3.00000000       3739.54004       1.60488379    
   4.82962894       1.29409504      -3.00000000       3739.54004       1.60488379    
   4.82962894       1.29409504      -4.00000000       3739.54004       1.60488379    
   4.57987785       1.89704800      -3.00000000       4332.95459       1.60164142    
   4.57987785       1.89704800      -2.00000000       4332.95459       1.60164142    
   4.82962894       1.29409504      -2.00000000       4332.95459       1.60164142    
   4.82962894       1.29409504      -3.00000000       4332.95459       1.60164142    
   4.57987785       1.89704800      -2.00000000       4872.97559       1.59948981    
   4.57987785       1.89704800      -1.00000000       4872.97559       1.59948981    
   4.82962894       1.29409504      -1.00000000       4872.97559       1.59948981    
   4.82962894       1.29409504      -2.00000000       4872.97559       1.59948981    
   4.57987785       1.89704800      -1.00000000       5309.04297       1.59829402    
   4.57987785       1.89704800       0.00000000       5309.04297       1.59829402    
   4.82962894       1.29409504       0.00000000       5309.04297       1.59829402    
   4.82962894       1.29409504      -1.00000000       5309.04297       1.59829402    
   3.53553391       3.53553391      -10.0000000       1560.16431       1.67720938    
   3.53553391       3.53553391      -9.00000000       1560.16431       1.67720938    
   3.93283010       3.01776695      -9.00000000       1560.16431       1.67720938    
   3.93283010       3.01776695      -10.0000000       1560.16431       1.67720938    
   3.53553391       3.53553391      -9.00000000       1902.44214       1.66993427    
   3.53553391       3.53553391      -8.00000000       1902.44214       1.66993427    
   3.93283010       3.01776695      -8.00000000       1902.44214       1.66993427    
   3.93283010       3.01776695      -9.00000000       1902.44214       1.66993427    
   3.53553391       3.53553391      -8.00000000       2760.78882       1.64508832    
   3.53553391       3.53553391      -7.00000000       2760.78882       1.64508832    
   3.93283010       3.01776695      -7.00000000       2760.78882       1.64508832    
   3.93283010       3.01776695      -8.00000000       2760.78882       1.64508832    
   3.53553391       3.53553391      -7.00000000       3832.80981       1.62807095    
   3.53553391       3.53553391      -6.00000000       3832.80981       1.62807095    
   3.93283010       3.01776695      -6.00000000       3832.80981       1.62807095    
   3.93283010       3.01776695      -7.00000000       3832.80981       1.62807095    
   3.53553391       3.53553391      -6.00000000       5014.50244       1.61724699    
   3.53553391       3.53553391      -5.00000000       5014.50244       1.61724699    
   3.93283010       3.01776695      -5.00000000       5014.50244       1.61724699    
   3.93283010       3.01776695      -6.00000000       5014.50244       1.61724699    
   3.53553391       3.53553391      -5.00000000       6244.33740       1.61015892    
   3.53553391       3.53553391      -4.00000000       6244.33740       1.61015892    
   3.93283010       3.01776695      -4.00000000       6244.33740       1.61015892    
   3.93283010       3.01776695      -5.00000000       6244.33740       1.61015892    
   3.53553391       3.53553391      -4.00000000       7472.33203       1.60537851    
   3.53553391       3.53553391      -3.00000000       7472.33203       1.60537851    
   3.93283010       3.01776695      -3.00000000       7472.33203       1.60537851    
   3.93283010       3.01776695      -4.00000000       7472.33203       1.60537851    
   3.53553391       3.53553391      -3.00000000       8648.41309       1.60212302    
   3.53553391       3.53553391      -2.00000000       8648.41309       1.60212302    
   3.93283010       3.01776695      -2.00000000       8648.41309       1.60212302    
   3.93283010       3.01776695      -3.00000000       8648.41309       1.60212302    
   3.53553391       3.53553391      -2.00000000       9716.21289       1.59996831    
   3.53553391       3.53553391      -1.00000000       9716.21289       1.59996831    
   3.93283010       3.01776695      -1.00000000       9716.21289       1.59996831    
   3.93283010       3.01776695      -2.00000000       9716.21289       1.59996831    
   3.53553391       3.53553391      -1.00000000       10575.7646       1.59878147    
   3.53553391       3.53553391       0.00000000       10575.7646       1.59878147    
   3.93283010       3.01776695       0.00000000       10575.7646       1.59878147    
   3.93283010       3.01776695      -1.00000000       10575.7646       1.59878147    
   3.93283010       3.01776695      -10.0000000       1299.08508       1.67926574    
   3.93283010       3.01776695      -9.00000000       1299.08508       1.67926574    
   4.33012676       2.50000000      -9.00000000       1299.08508       1.67926574    
   4.33012676       2.50000000      -10.0000000       1299.08508       1.67926574    
   3.93283010       3.01776695      -9.00000000       1601.28918       1.67079532    
   3.93283010       3.01776695      -8.00000000       1601.28918       1.67079532    
   4.33012676       2.50000000      -8.00000000       1601.28918       1.67079532    
   4.33012676       2.50000000      -9.00000000       1601.28918       1.67079532    
   3.93283010       3.01776695      -8.00000000       2344.54761       1.64507186    
   3.93283010       3.01776695      -7.00000000       2344.54761       1.64507186    
   4.33012676       2.50000000      -7.00000000       2344.54761       1.64507186    
   4.33012676       2.50000000      -8.00000000       2344.54761       1.64507186    
   3.93283010       3.01776695      -7.00000000       3269.36890       1.62780631    
   3.93283010       3.01776695      -6.00000000       3269.36890       1.62780631    
   4.33012676       2.50000000      -6.00000000       3269.36890       1.62780631    
   4.33012676       2.50000000      -7.00000000       3269.36890       1.62780631    
   3.93283010       3.01776695      -6.00000000       4287.47314       1.61692178    
   3.93283010       3.01776695      -5.00000000       4287.47314       1.61692178    
   4.33012676       2.50000000      -5.00000000       4287.47314       1.61692178    
   4.33012676       2.50000000      -6.00000000       4287.47314       1.61692178    
   3.93283010       3.01776695      -5.00000000       5346.41211       1.60983026    
   3.93283010       3.01776695      -4.00000000       5346.41211       1.60983026    
   4.33012676       2.50000000      -4.00000000       5346.41211       1.60983026    
   4.33012676       2.50000000      -5.00000000       5346.41211       1.60983026    
   3.93283010       3.01776695      -4.00000000       6404.08691       1.60505664    
   3.93283010       3.01776695      -3.00000000       6404.08691       1.60505664    
   4.33012676       2.50000000      -3.00000000       6404.08691       1.60505664    
   4.33012676       2.50000000      -4.00000000       6404.08691       1.60505664    
   3.93283010       3.01776695      -3.00000000       7417.42676       1.60180938    
   3.93283010       3.01776695      -2.00000000       7417.42676       1.60180938    
   4.33012676       2.50000000      -2.00000000       7417.42676       1.60180938    
   4.33012676       2.50000000      -3.00000000       7417.42676       1.60180938    
   3.93283010       3.01776695      -2.00000000       8338.86230       1.59965718    
   3.93283010       3.01776695      -1.00000000       8338.86230       1.59965718    
   4.33012676       2.50000000      -1.00000000       8338.86230       1.59965718    
   4.33012676       2.50000000      -2.00000000       8338.86230       1.59965718    
   3.93283010       3.01776695      -1.00000000       9082.13281       1.59846461    
   3.93283010       3.01776695       0.00000000       9082.13281       1.59846461    
   4.33012676       2.50000000       0.00000000       9082.13281       1.59846461    
   4.33012676       2.50000000      -1.00000000       9082.13281       1.59846461    
   2.50000000       4.33012676      -10.0000000       1963.28894       1.67757308    
   2.50000000       4.33012676      -9.00000000       1963.28894       1.67757308    
   3.01776695       3.93283010      -9.00000000       1963.28894       1.67757308    
   3.01776695       3.93283010      -10.0000000       1963.28894       1.67757308    
   2.50000000       4.33012676      -9.00000000       2398.61353       1.67008805    
   2.50000000       4.33012676      -8.00000000       2398.61353       1.67008805    
   3.01776695       3.93283010      -8.00000000       2398.61353       1.67008805    
   3.01776695       3.93283010      -9.00000000       2398.61353       1.67008805    
   2.50000000       4.33012676      -8.00000000       3486.40210       1.64508653    
   2.50000000       4.33012676      -7.00000000       3486.40210       1.64508653    
   3.01776695       3.93283010      -7.00000000       3486.40210       1.64508653    
   3.01776695       3.93283010      -8.00000000       3486.40210       1.64508653    
   2.50000000       4.33012676      -7.00000000       4844.04834       1.62802410    
   2.50000000       4.33012676      -6.00000000       4844.04834       1.62802410    
   3.01776695       3.93283010      -6.00000000       4844.04834       1.62802410    
   3.01776695       3.93283010      -7.00000000       4844.04834       1.62802410    
   2.50000000       4.33012676      -6.00000000       6340.22852       1.61718702    
   2.50000000       4.33012676      -5.00000000       6340.22852       1.61718702    
   3.01776695       3.93283010      -5.00000000       6340.22852       1.61718702    
   3.01776695       3.93283010      -6.00000000       6340.22852       1.61718702    
   2.50000000       4.33012676      -5.00000000       7897.18066       1.61009967    
   2.50000000       4.33012676      -4.00000000       7897.18066       1.61009967    
   3.01776695       3.93283010      -4.00000000       7897.18066       1.61009967    
   3.01776695       3.93283010      -5.00000000       7897.18066       1.61009967    
   2.50000000       4.33012676      -4.00000000       9451.91504       1.60532010    
   2.50000000       4.33012676      -3.00000000       9451.91504       1.60532010    
   3.01776695       3.93283010      -3.00000000       9451.91504       1.60532010    
   3.01776695       3.93283010      -4.00000000       9451.91504       1.60532010    
   2.50000000       4.33012676      -3.00000000       10941.0068       1.60206628    
   2.50000000       4.33012676      -2.00000000       10941.0068       1.60206628    
   3.01776695       3.93283010      -2.00000000       10941.0068       1.60206628    
   3.01776695       3.93283010      -3.00000000       10941.0068       1.60206628    
   2.50000000       4.33012676      -2.00000000       12293.3818       1.59991205    
   2.50000000       4.33012676      -1.00000000       12293.3818       1.59991205    
   3.01776695       3.93283010      -1.00000000       12293.3818       1.59991205    
   3.01776695       3.93283010      -2.00000000       12293.3818       1.59991205    
   2.50000000       4.33012676      -1.00000000       13382.4141       1.59872353    
   2.50000000       4.33012676       0.00000000       13382.4141       1.59872353    
   3.01776695       3.93283010       0.00000000       13382.4141       1.59872353    
   3.01776695       3.93283010      -1.00000000       13382.4141       1.59872353    
   3.01776695       3.93283010      -10.0000000       1762.95898       1.67877781    
   3.01776695       3.93283010      -9.00000000       1762.95898       1.67877781    
   3.53553391       3.53553391      -9.00000000       1762.95898       1.67877781    
   3.53553391       3.53553391      -10.0000000       1762.95898       1.67877781    
   3.01776695       3.93283010      -9.00000000       2167.53345       1.67059422    
   3.01776695       3.93283010      -8.00000000       2167.53345       1.67059422    
   3.53553391       3.53553391      -8.00000000       2167.53345       1.67059422    
   3.53553391       3.53553391      -9.00000000       2167.53345       1.67059422    
   3.01776695       3.93283010      -8.00000000       3167.00537       1.64507532    
   3.01776695       3.93283010      -7.00000000       3167.00537       1.64507532    
   3.53553391       3.53553391      -7.00000000       3167.00537       1.64507532    
   3.53553391       3.53553391      -8.00000000       3167.00537       1.64507532    
   3.01776695       3.93283010      -7.00000000       4411.69629       1.62786698    
   3.01776695       3.93283010      -6.00000000       4411.69629       1.62786698    
   3.53553391       3.53553391      -6.00000000       4411.69629       1.62786698    
   3.53553391       3.53553391      -7.00000000       4411.69629       1.62786698    
   3.01776695       3.93283010      -6.00000000       5782.35156       1.61699665    
   3.01776695       3.93283010      -5.00000000       5782.35156       1.61699665    
   3.53553391       3.53553391      -5.00000000       5782.35156       1.61699665    
   3.53553391       3.53553391      -6.00000000       5782.35156       1.61699665    
   3.01776695       3.93283010      -5.00000000       7208.17383       1.60990715    
   3.01776695       3.93283010      -4.00000000       7208.17383       1.60990715    
   3.53553391       3.53553391      -4.00000000       7208.17383       1.60990715    
   3.53553391       3.53553391      -5.00000000       7208.17383       1.60990715    
   3.01776695       3.93283010      -4.00000000       8632.20996       1.60513163    
   3.01776695       3.93283010      -3.00000000       8632.20996       1.60513163    
   3.53553391       3.53553391      -3.00000000       8632.20996       1.60513163    
   3.53553391       3.53553391      -4.00000000       8632.20996       1.60513163    
   3.01776695       3.93283010      -3.00000000       9996.43262       1.60188150    
   3.01776695       3.93283010      -2.00000000       9996.43262       1.60188150    
   3.53553391       3.53553391      -2.00000000       9996.43262       1.60188150    
   3.53553391       3.53553391      -3.00000000       9996.43262       1.60188150    
   3.01776695       3.93283010      -2.00000000       11236.4805       1.59972918    
   3.01776695       3.93283010      -1.00000000       11236.4805       1.59972918    
   3.53553391       3.53553391      -1.00000000       11236.4805       1.59972918    
   3.53553391       3.53553391      -2.00000000       11236.4805       1.59972918    
   3.01776695       3.93283010      -1.00000000       12236.2852       1.59853792    
   3.01776695       3.93283010       0.00000000       12236.2852       1.59853792    
   3.53553391       3.53553391       0.00000000       12236.2852       1.59853792    
   3.53553391       3.53553391      -1.00000000       12236.2852       1.59853792    
   1.29409504       4.82962894      -10.0000000       2232.62158       1.67782807    
   1.29409504       4.82962894      -9.00000000       2232.62158       1.67782807    
   1.89704800       4.57987785      -9.00000000       2232.62158       1.67782807    
   1.89704800       4.57987785      -10.0000000       2232.62158       1.67782807    
   1.29409504       4.82962894      -9.00000000       2731.32739       1.67019629    
   1.29409504       4.82962894      -8.00000000       2731.32739       1.67019629    
   1.89704800       4.57987785      -8.00000000       2731.32739       1.67019629    
   1.89704800       4.57987785      -9.00000000       2731.32739       1.67019629    
   1.29409504       4.82962894      -8.00000000       3974.41699       1.64508402    
   1.29409504       4.82962894      -7.00000000       3974.41699       1.64508402    
   1.89704800       4.57987785      -7.00000000       3974.41699       1.64508402    
   1.89704800       4.57987785      -8.00000000       3974.41699       1.64508402    
   1.29409504       4.82962894      -7.00000000       5525.16309       1.62798989    
   1.29409504       4.82962894      -6.00000000       5525.16309       1.62798989    
   1.89704800       4.57987785      -6.00000000       5525.16309       1.62798989    
   1.89704800       4.57987785      -7.00000000       5525.16309       1.62798989    
   1.29409504       4.82962894      -6.00000000       7233.85498       1.61714649    
   1.29409504       4.82962894      -5.00000000       7233.85498       1.61714649    
   1.89704800       4.57987785      -5.00000000       7233.85498       1.61714649    
   1.89704800       4.57987785      -6.00000000       7233.85498       1.61714649    
   1.29409504       4.82962894      -5.00000000       9011.84277       1.61005843    
   1.29409504       4.82962894      -4.00000000       9011.84277       1.61005843    
   1.89704800       4.57987785      -4.00000000       9011.84277       1.61005843    
   1.89704800       4.57987785      -5.00000000       9011.84277       1.61005843    
   1.29409504       4.82962894      -4.00000000       10787.3438       1.60527968    
   1.29409504       4.82962894      -3.00000000       10787.3438       1.60527968    
   1.89704800       4.57987785      -3.00000000       10787.3438       1.60527968    