 VARIABLES="X" "Y" "Z" "abs(p) (Pa)" "angle(p) (rad)"
ZONE N=   1080,E =     600, F=FEPOINT, ET=QUADRILATERAL
   4.82962894       1.29409504      -10.0000000       1131.35706      -2.89246583    
   4.82962894       1.29409504      -9.00000000       1131.35706      -2.89246583    
   4.91481400      0.647047520      -9.00000000       1131.35706      -2.89246583    
   4.91481400      0.647047520      -10.0000000       1131.35706      -2.89246583    
   4.82962894       1.29409504      -9.00000000       1457.36609      -2.99913335    
   4.82962894       1.29409504      -8.00000000       1457.36609      -2.99913335    
   4.91481400      0.647047520      -8.00000000       1457.36609      -2.99913335    
   4.91481400      0.647047520      -9.00000000       1457.36609      -2.99913335    
   4.82962894       1.29409504      -8.00000000       1827.81848      -3.04274225    
   4.82962894       1.29409504      -7.00000000       1827.81848      -3.04274225    
   4.91481400      0.647047520      -7.00000000       1827.81848      -3.04274225    
   4.91481400      0.647047520      -8.00000000       1827.81848      -3.04274225    
   4.82962894       1.29409504      -7.00000000       2268.62476      -3.06568599    
   4.82962894       1.29409504      -6.00000000       2268.62476      -3.06568599    
   4.91481400      0.647047520      -6.00000000       2268.62476      -3.06568599    
   4.91481400      0.647047520      -7.00000000       2268.62476      -3.06568599    
   4.82962894       1.29409504      -6.00000000       2801.12915      -3.07860780    
   4.82962894       1.29409504      -5.00000000       2801.12915      -3.07860780    
   4.91481400      0.647047520      -5.00000000       2801.12915      -3.07860780    
   4.91481400      0.647047520      -6.00000000       2801.12915      -3.07860780    
   4.82962894       1.29409504      -5.00000000       3449.39380      -3.08590126    
   4.82962894       1.29409504      -4.00000000       3449.39380      -3.08590126    
   4.91481400      0.647047520      -4.00000000       3449.39380      -3.08590126    
   4.91481400      0.647047520      -5.00000000       3449.39380      -3.08590126    
   4.82962894       1.29409504      -4.00000000       4240.52002      -3.08999729    
   4.82962894       1.29409504      -3.00000000       4240.52002      -3.08999729    
   4.91481400      0.647047520      -3.00000000       4240.52002      -3.08999729    
   4.91481400      0.647047520      -4.00000000       4240.52002      -3.08999729    
   4.82962894       1.29409504      -3.00000000       5206.80029      -3.09195375    
   4.82962894       1.29409504      -2.00000000       5206.80029      -3.09195375    
   4.91481400      0.647047520      -2.00000000       5206.80029      -3.09195375    
   4.91481400      0.647047520      -3.00000000       5206.80029      -3.09195375    
   4.82962894       1.29409504      -2.00000000       6387.85205      -3.09239411    
   4.82962894       1.29409504      -1.00000000       6387.85205      -3.09239411    
   4.91481400      0.647047520      -1.00000000       6387.85205      -3.09239411    
   4.91481400      0.647047520      -2.00000000       6387.85205      -3.09239411    
   4.82962894       1.29409504      -1.00000000       7824.29688      -3.09131789    
   4.82962894       1.29409504       0.00000000       7824.29688      -3.09131789    
   4.91481400      0.647047520       0.00000000       7824.29688      -3.09131789    
   4.91481400      0.647047520      -1.00000000       7824.29688      -3.09131789    
   4.91481400      0.647047520      -10.0000000       1157.74597      -2.89289737    
   4.91481400      0.647047520      -9.00000000       1157.74597      -2.89289737    
   5.00000000       0.00000000      -9.00000000       1157.74597      -2.89289737    
   5.00000000       0.00000000      -10.0000000       1157.74597      -2.89289737    
   4.91481400      0.647047520      -9.00000000       1495.29028      -2.99822474    
   4.91481400      0.647047520      -8.00000000       1495.29028      -2.99822474    
   5.00000000       0.00000000      -8.00000000       1495.29028      -2.99822474    
   5.00000000       0.00000000      -9.00000000       1495.29028      -2.99822474    
   4.91481400      0.647047520      -8.00000000       1876.97729      -3.04125381    
   4.91481400      0.647047520      -7.00000000       1876.97729      -3.04125381    
   5.00000000       0.00000000      -7.00000000       1876.97729      -3.04125381    
   5.00000000       0.00000000      -8.00000000       1876.97729      -3.04125381    
   4.91481400      0.647047520      -7.00000000       2330.48975      -3.06390452    
   4.91481400      0.647047520      -6.00000000       2330.48975      -3.06390452    
   5.00000000       0.00000000      -6.00000000       2330.48975      -3.06390452    
   5.00000000       0.00000000      -7.00000000       2330.48975      -3.06390452    
   4.91481400      0.647047520      -6.00000000       2878.02295      -3.07667375    
   4.91481400      0.647047520      -5.00000000       2878.02295      -3.07667375    
   5.00000000       0.00000000      -5.00000000       2878.02295      -3.07667375    
   5.00000000       0.00000000      -6.00000000       2878.02295      -3.07667375    
   4.91481400      0.647047520      -5.00000000       3544.38525      -3.08388734    
   4.91481400      0.647047520      -4.00000000       3544.38525      -3.08388734    
   5.00000000       0.00000000      -4.00000000       3544.38525      -3.08388734    
   5.00000000       0.00000000      -5.00000000       3544.38525      -3.08388734    
   4.91481400      0.647047520      -4.00000000       4357.48193      -3.08794498    
   4.91481400      0.647047520      -3.00000000       4357.48193      -3.08794498    
   5.00000000       0.00000000      -3.00000000       4357.48193      -3.08794498    
   5.00000000       0.00000000      -4.00000000       4357.48193      -3.08794498    
   4.91481400      0.647047520      -3.00000000       5350.51855      -3.08989334    
   4.91481400      0.647047520      -2.00000000       5350.51855      -3.08989334    
   5.00000000       0.00000000      -2.00000000       5350.51855      -3.08989334    
   5.00000000       0.00000000      -3.00000000       5350.51855      -3.08989334    
   4.91481400      0.647047520      -2.00000000       6564.18799      -3.09034777    
   4.91481400      0.647047520      -1.00000000       6564.18799      -3.09034777    
   5.00000000       0.00000000      -1.00000000       6564.18799      -3.09034777    
   5.00000000       0.00000000      -2.00000000       6564.18799      -3.09034777    
   4.91481400      0.647047520      -1.00000000       8040.29932      -3.08933377    
   4.91481400      0.647047520       0.00000000       8040.29932      -3.08933377    
   5.00000000       0.00000000       0.00000000       8040.29932      -3.08933377    
   5.00000000       0.00000000      -1.00000000       8040.29932      -3.08933377    
   4.33012676       2.50000000      -10.0000000       998.328308      -2.88260531    
   4.33012676       2.50000000      -9.00000000       998.328308      -2.88260531    
   4.57987785       1.89704800      -9.00000000       998.328308      -2.88260531    
   4.57987785       1.89704800      -10.0000000       998.328308      -2.88260531    
   4.33012676       2.50000000      -9.00000000       1265.16711      -2.99636054    
   4.33012676       2.50000000      -8.00000000       1265.16711      -2.99636054    
   4.57987785       1.89704800      -8.00000000       1265.16711      -2.99636054    
   4.57987785       1.89704800      -9.00000000       1265.16711      -2.99636054    
   4.33012676       2.50000000      -8.00000000       1578.49646      -3.04332352    
   4.33012676       2.50000000      -7.00000000       1578.49646      -3.04332352    
   4.57987785       1.89704800      -7.00000000       1578.49646      -3.04332352    
   4.57987785       1.89704800      -8.00000000       1578.49646      -3.04332352    
   4.33012676       2.50000000      -7.00000000       1954.70667      -3.06799817    
   4.33012676       2.50000000      -6.00000000       1954.70667      -3.06799817    
   4.57987785       1.89704800      -6.00000000       1954.70667      -3.06799817    
   4.57987785       1.89704800      -7.00000000       1954.70667      -3.06799817    
   4.33012676       2.50000000      -6.00000000       2410.85962      -3.08184052    
   4.33012676       2.50000000      -5.00000000       2410.85962      -3.08184052    
   4.57987785       1.89704800      -5.00000000       2410.85962      -3.08184052    
   4.57987785       1.89704800      -6.00000000       2410.85962      -3.08184052    
   4.33012676       2.50000000      -5.00000000       2967.17236      -3.08962011    
   4.33012676       2.50000000      -4.00000000       2967.17236      -3.08962011    
   4.57987785       1.89704800      -4.00000000       2967.17236      -3.08962011    
   4.57987785       1.89704800      -5.00000000       2967.17236      -3.08962011    
   4.33012676       2.50000000      -4.00000000       3646.67603      -3.09395075    
   4.33012676       2.50000000      -3.00000000       3646.67603      -3.09395075    
   4.57987785       1.89704800      -3.00000000       3646.67603      -3.09395075    
   4.57987785       1.89704800      -4.00000000       3646.67603      -3.09395075    
   4.33012676       2.50000000      -3.00000000       4477.06592      -3.09596395    
   4.33012676       2.50000000      -2.00000000       4477.06592      -3.09596395    
   4.57987785       1.89704800      -2.00000000       4477.06592      -3.09596395    
   4.57987785       1.89704800      -3.00000000       4477.06592      -3.09596395    
   4.33012676       2.50000000      -2.00000000       5492.47461      -3.09632373    
   4.33012676       2.50000000      -1.00000000       5492.47461      -3.09632373    
   4.57987785       1.89704800      -1.00000000       5492.47461      -3.09632373    
   4.57987785       1.89704800      -2.00000000       5492.47461      -3.09632373    
   4.33012676       2.50000000      -1.00000000       6728.12402      -3.09490228    
   4.33012676       2.50000000       0.00000000       6728.12402      -3.09490228    
   4.57987785       1.89704800       0.00000000       6728.12402      -3.09490228    
   4.57987785       1.89704800      -1.00000000       6728.12402      -3.09490228    
   4.57987785       1.89704800      -10.0000000       1072.54858      -2.88743734    
   4.57987785       1.89704800      -9.00000000       1072.54858      -2.88743734    
   4.82962894       1.29409504      -9.00000000       1072.54858      -2.88743734    
   4.82962894       1.29409504      -10.0000000       1072.54858      -2.88743734    
   4.57987785       1.89704800      -9.00000000       1372.13684      -2.99724960    
   4.57987785       1.89704800      -8.00000000       1372.13684      -2.99724960    
   4.82962894       1.29409504      -8.00000000       1372.13684      -2.99724960    
   4.82962894       1.29409504      -9.00000000       1372.13684      -2.99724960    
   4.57987785       1.89704800      -8.00000000       1717.30786      -3.04234457    
   4.57987785       1.89704800      -7.00000000       1717.30786      -3.04234457    
   4.82962894       1.29409504      -7.00000000       1717.30786      -3.04234457    
   4.82962894       1.29409504      -8.00000000       1717.30786      -3.04234457    
   4.57987785       1.89704800      -7.00000000       2129.51416      -3.06604481    
   4.57987785       1.89704800      -6.00000000       2129.51416      -3.06604481    
   4.82962894       1.29409504      -6.00000000       2129.51416      -3.06604481    
   4.82962894       1.29409504      -7.00000000       2129.51416      -3.06604481    
   4.57987785       1.89704800      -6.00000000       2628.20654      -3.07936978    
   4.57987785       1.89704800      -5.00000000       2628.20654      -3.07936978    
   4.82962894       1.29409504      -5.00000000       2628.20654      -3.07936978    
   4.82962894       1.29409504      -6.00000000       2628.20654      -3.07936978    
   4.57987785       1.89704800      -5.00000000       3235.73657      -3.08687568    
   4.57987785       1.89704800      -4.00000000       3235.73657      -3.08687568    
   4.82962894       1.29409504      -4.00000000       3235.73657      -3.08687568    
   4.82962894       1.29409504      -5.00000000       3235.73657      -3.08687568    
   4.57987785       1.89704800      -4.00000000       3977.39429      -3.09107375    
   4.57987785       1.89704800      -3.00000000       3977.39429      -3.09107375    
   4.82962894       1.29409504      -3.00000000       3977.39429      -3.09107375    
   4.82962894       1.29409504      -4.00000000       3977.39429      -3.09107375    
   4.57987785       1.89704800      -3.00000000       4883.46777      -3.09305859    
   4.57987785       1.89704800      -2.00000000       4883.46777      -3.09305859    
   4.82962894       1.29409504      -2.00000000       4883.46777      -3.09305859    
   4.82962894       1.29409504      -3.00000000       4883.46777      -3.09305859    
   4.57987785       1.89704800      -2.00000000       5991.11963      -3.09346533    
   4.57987785       1.89704800      -1.00000000       5991.11963      -3.09346533    
   4.82962894       1.29409504      -1.00000000       5991.11963      -3.09346533    
   4.82962894       1.29409504      -2.00000000       5991.11963      -3.09346533    
   4.57987785       1.89704800      -1.00000000       7338.90381      -3.09225774    
   4.57987785       1.89704800       0.00000000       7338.90381      -3.09225774    
   4.82962894       1.29409504       0.00000000       7338.90381      -3.09225774    
   4.82962894       1.29409504      -1.00000000       7338.90381      -3.09225774    
   3.53553391       3.53553391      -10.0000000       785.315979      -2.83871746    
   3.53553391       3.53553391      -9.00000000       785.315979      -2.83871746    
   3.93283010       3.01776695      -9.00000000       785.315979      -2.83871746    
   3.93283010       3.01776695      -10.0000000       785.315979      -2.83871746    
   3.53553391       3.53553391      -9.00000000       955.140320      -2.96287727    
   3.53553391       3.53553391      -8.00000000       955.140320      -2.96287727    
   3.93283010       3.01776695      -8.00000000       955.140320      -2.96287727    
   3.93283010       3.01776695      -9.00000000       955.140320      -2.96287727    
   3.53553391       3.53553391      -8.00000000       1175.06482      -3.01629090    
   3.53553391       3.53553391      -7.00000000       1175.06482      -3.01629090    
   3.93283010       3.01776695      -7.00000000       1175.06482      -3.01629090    
   3.93283010       3.01776695      -8.00000000       1175.06482      -3.01629090    
   3.53553391       3.53553391      -7.00000000       1445.92065      -3.04458070    
   3.53553391       3.53553391      -6.00000000       1445.92065      -3.04458070    
   3.93283010       3.01776695      -6.00000000       1445.92065      -3.04458070    
   3.93283010       3.01776695      -7.00000000       1445.92065      -3.04458070    
   3.53553391       3.53553391      -6.00000000       1777.73059      -3.06042218    
   3.53553391       3.53553391      -5.00000000       1777.73059      -3.06042218    
   3.93283010       3.01776695      -5.00000000       1777.73059      -3.06042218    
   3.93283010       3.01776695      -6.00000000       1777.73059      -3.06042218    
   3.53553391       3.53553391      -5.00000000       2184.45215      -3.06927919    
   3.53553391       3.53553391      -4.00000000       2184.45215      -3.06927919    
   3.93283010       3.01776695      -4.00000000       2184.45215      -3.06927919    
   3.93283010       3.01776695      -5.00000000       2184.45215      -3.06927919    
   3.53553391       3.53553391      -4.00000000       2682.47852      -3.07413411    
   3.53553391       3.53553391      -3.00000000       2682.47852      -3.07413411    
   3.93283010       3.01776695      -3.00000000       2682.47852      -3.07413411    
   3.93283010       3.01776695      -4.00000000       2682.47852      -3.07413411    
   3.53553391       3.53553391      -3.00000000       3292.04834      -3.07626700    
   3.53553391       3.53553391      -2.00000000       3292.04834      -3.07626700    
   3.93283010       3.01776695      -2.00000000       3292.04834      -3.07626700    
   3.93283010       3.01776695      -3.00000000       3292.04834      -3.07626700    
   3.53553391       3.53553391      -2.00000000       4038.44263      -3.07643294    
   3.53553391       3.53553391      -1.00000000       4038.44263      -3.07643294    
   3.93283010       3.01776695      -1.00000000       4038.44263      -3.07643294    
   3.93283010       3.01776695      -2.00000000       4038.44263      -3.07643294    
   3.53553391       3.53553391      -1.00000000       4948.41064      -3.07421803    
   3.53553391       3.53553391       0.00000000       4948.41064      -3.07421803    
   3.93283010       3.01776695       0.00000000       4948.41064      -3.07421803    
   3.93283010       3.01776695      -1.00000000       4948.41064      -3.07421803    
   3.93283010       3.01776695      -10.0000000       892.453552      -2.86243963    
   3.93283010       3.01776695      -9.00000000       892.453552      -2.86243963    
   4.33012676       2.50000000      -9.00000000       892.453552      -2.86243963    
   4.33012676       2.50000000      -10.0000000       892.453552      -2.86243963    
   3.93283010       3.01776695      -9.00000000       1110.72729      -2.98177528    
   3.93283010       3.01776695      -8.00000000       1110.72729      -2.98177528    
   4.33012676       2.50000000      -8.00000000       1110.72729      -2.98177528    
   4.33012676       2.50000000      -9.00000000       1110.72729      -2.98177528    
   3.93283010       3.01776695      -8.00000000       1377.69653      -3.03194284    
   3.93283010       3.01776695      -7.00000000       1377.69653      -3.03194284    
   4.33012676       2.50000000      -7.00000000       1377.69653      -3.03194284    
   4.33012676       2.50000000      -8.00000000       1377.69653      -3.03194284    
   3.93283010       3.01776695      -7.00000000       1701.59155      -3.05834794    
   3.93283010       3.01776695      -6.00000000       1701.59155      -3.05834794    
   4.33012676       2.50000000      -6.00000000       1701.59155      -3.05834794    
   4.33012676       2.50000000      -7.00000000       1701.59155      -3.05834794    
   3.93283010       3.01776695      -6.00000000       2095.97485      -3.07313919    
   3.93283010       3.01776695      -5.00000000       2095.97485      -3.07313919    
   4.33012676       2.50000000      -5.00000000       2095.97485      -3.07313919    
   4.33012676       2.50000000      -6.00000000       2095.97485      -3.07313919    
   3.93283010       3.01776695      -5.00000000       2577.93799      -3.08142519    
   3.93283010       3.01776695      -4.00000000       2577.93799      -3.08142519    
   4.33012676       2.50000000      -4.00000000       2577.93799      -3.08142519    
   4.33012676       2.50000000      -5.00000000       2577.93799      -3.08142519    
   3.93283010       3.01776695      -4.00000000       3167.18604      -3.08599973    
   3.93283010       3.01776695      -3.00000000       3167.18604      -3.08599973    
   4.33012676       2.50000000      -3.00000000       3167.18604      -3.08599973    
   4.33012676       2.50000000      -4.00000000       3167.18604      -3.08599973    
   3.93283010       3.01776695      -3.00000000       3887.78882      -3.08807874    
   3.93283010       3.01776695      -2.00000000       3887.78882      -3.08807874    
   4.33012676       2.50000000      -2.00000000       3887.78882      -3.08807874    
   4.33012676       2.50000000      -3.00000000       3887.78882      -3.08807874    
   3.93283010       3.01776695      -2.00000000       4769.42676      -3.08835506    
   3.93283010       3.01776695      -1.00000000       4769.42676      -3.08835506    
   4.33012676       2.50000000      -1.00000000       4769.42676      -3.08835506    
   4.33012676       2.50000000      -2.00000000       4769.42676      -3.08835506    
   3.93283010       3.01776695      -1.00000000       5843.58496      -3.08662081    
   3.93283010       3.01776695       0.00000000       5843.58496      -3.08662081    
   4.33012676       2.50000000       0.00000000       5843.58496      -3.08662081    
   4.33012676       2.50000000      -1.00000000       5843.58496      -3.08662081    
   2.50000000       4.33012676      -10.0000000       543.578308      -2.68591404    
   2.50000000       4.33012676      -9.00000000       543.578308      -2.68591404    
   3.01776695       3.93283010      -9.00000000       543.578308      -2.68591404    
   3.01776695       3.93283010      -10.0000000       543.578308      -2.68591404    
   2.50000000       4.33012676      -9.00000000       598.622803      -2.79727912    
   2.50000000       4.33012676      -8.00000000       598.622803      -2.79727912    
   3.01776695       3.93283010      -8.00000000       598.622803      -2.79727912    
   3.01776695       3.93283010      -9.00000000       598.622803      -2.79727912    
   2.50000000       4.33012676      -8.00000000       707.193359      -2.85331178    
   2.50000000       4.33012676      -7.00000000       707.193359      -2.85331178    
   3.01776695       3.93283010      -7.00000000       707.193359      -2.85331178    
   3.01776695       3.93283010      -8.00000000       707.193359      -2.85331178    
   2.50000000       4.33012676      -7.00000000       852.997192      -2.88484883    
   2.50000000       4.33012676      -6.00000000       852.997192      -2.88484883    
   3.01776695       3.93283010      -6.00000000       852.997192      -2.88484883    
   3.01776695       3.93283010      -7.00000000       852.997192      -2.88484883    
   2.50000000       4.33012676      -6.00000000       1037.84290      -2.90294790    
   2.50000000       4.33012676      -5.00000000       1037.84290      -2.90294790    
   3.01776695       3.93283010      -5.00000000       1037.84290      -2.90294790    
   3.01776695       3.93283010      -6.00000000       1037.84290      -2.90294790    
   2.50000000       4.33012676      -5.00000000       1268.30603      -2.91313767    
   2.50000000       4.33012676      -4.00000000       1268.30603      -2.91313767    
   3.01776695       3.93283010      -4.00000000       1268.30603      -2.91313767    
   3.01776695       3.93283010      -5.00000000       1268.30603      -2.91313767    
   2.50000000       4.33012676      -4.00000000       1552.95349      -2.91860485    
   2.50000000       4.33012676      -3.00000000       1552.95349      -2.91860485    
   3.01776695       3.93283010      -3.00000000       1552.95349      -2.91860485    
   3.01776695       3.93283010      -4.00000000       1552.95349      -2.91860485    
   2.50000000       4.33012676      -3.00000000       1903.38525      -2.92070270    
   2.50000000       4.33012676      -2.00000000       1903.38525      -2.92070270    
   3.01776695       3.93283010      -2.00000000       1903.38525      -2.92070270    
   3.01776695       3.93283010      -3.00000000       1903.38525      -2.92070270    
   2.50000000       4.33012676      -2.00000000       2334.65942      -2.92031479    
   2.50000000       4.33012676      -1.00000000       2334.65942      -2.92031479    
   3.01776695       3.93283010      -1.00000000       2334.65942      -2.92031479    
   3.01776695       3.93283010      -2.00000000       2334.65942      -2.92031479    
   2.50000000       4.33012676      -1.00000000       2864.57129      -2.91637754    
   2.50000000       4.33012676       0.00000000       2864.57129      -2.91637754    
   3.01776695       3.93283010       0.00000000       2864.57129      -2.91637754    
   3.01776695       3.93283010      -1.00000000       2864.57129      -2.91637754    
   3.01776695       3.93283010      -10.0000000       656.776123      -2.77212405    
   3.01776695       3.93283010      -9.00000000       656.776123      -2.77212405    
   3.53553391       3.53553391      -9.00000000       656.776123      -2.77212405    
   3.53553391       3.53553391      -10.0000000       656.776123      -2.77212405    
   3.01776695       3.93283010      -9.00000000       764.915527      -2.89649153    
   3.01776695       3.93283010      -8.00000000       764.915527      -2.89649153    
   3.53553391       3.53553391      -8.00000000       764.915527      -2.89649153    
   3.53553391       3.53553391      -9.00000000       764.915527      -2.89649153    
   3.01776695       3.93283010      -8.00000000       925.854980      -2.95354986    
   3.01776695       3.93283010      -7.00000000       925.854980      -2.95354986    
   3.53553391       3.53553391      -7.00000000       925.854980      -2.95354986    
   3.53553391       3.53553391      -8.00000000       925.854980      -2.95354986    
   3.01776695       3.93283010      -7.00000000       1130.49304      -2.98437524    
   3.01776695       3.93283010      -6.00000000       1130.49304      -2.98437524    
   3.53553391       3.53553391      -6.00000000       1130.49304      -2.98437524    
   3.53553391       3.53553391      -7.00000000       1130.49304      -2.98437524    
   3.01776695       3.93283010      -6.00000000       1384.42493      -3.00176048    
   3.01776695       3.93283010      -5.00000000       1384.42493      -3.00176048    
   3.53553391       3.53553391      -5.00000000       1384.42493      -3.00176048    
   3.53553391       3.53553391      -6.00000000       1384.42493      -3.00176048    
   3.01776695       3.93283010      -5.00000000       1697.65076      -3.01147771    
   3.01776695       3.93283010      -4.00000000       1697.65076      -3.01147771    
   3.53553391       3.53553391      -4.00000000       1697.65076      -3.01147771    
   3.53553391       3.53553391      -5.00000000       1697.65076      -3.01147771    
   3.01776695       3.93283010      -4.00000000       2082.38257      -3.01673508    
   3.01776695       3.93283010      -3.00000000       2082.38257      -3.01673508    
   3.53553391       3.53553391      -3.00000000       2082.38257      -3.01673508    
   3.53553391       3.53553391      -4.00000000       2082.38257      -3.01673508    
   3.01776695       3.93283010      -3.00000000       2554.33203      -3.01894093    
   3.01776695       3.93283010      -2.00000000       2554.33203      -3.01894093    
   3.53553391       3.53553391      -2.00000000       2554.33203      -3.01894093    
   3.53553391       3.53553391      -3.00000000       2554.33203      -3.01894093    
   3.01776695       3.93283010      -2.00000000       3133.27002      -3.01889229    
   3.01776695       3.93283010      -1.00000000       3133.27002      -3.01889229    
   3.53553391       3.53553391      -1.00000000       3133.27002      -3.01889229    
   3.53553391       3.53553391      -2.00000000       3133.27002      -3.01889229    
   3.01776695       3.93283010      -1.00000000       3841.61426      -3.01602364    
   3.01776695       3.93283010       0.00000000       3841.61426      -3.01602364    
   3.53553391       3.53553391       0.00000000       3841.61426      -3.01602364    
   3.53553391       3.53553391      -1.00000000       3841.61426      -3.01602364    
   1.29409504       4.82962894      -10.0000000       367.751038      -2.24441147    
   1.29409504       4.82962894      -9.00000000       367.751038      -2.24441147    
   1.89704800       4.57987785      -9.00000000       367.751038      -2.24441147    
   1.89704800       4.57987785      -10.0000000       367.751038      -2.24441147    
   1.29409504       4.82962894      -9.00000000       359.988647      -2.14269614    
   1.29409504       4.82962894      -8.00000000       359.988647      -2.14269614    
   1.89704800       4.57987785      -8.00000000       359.988647      -2.14269614    
   1.89704800       4.57987785      -9.00000000       359.988647      -2.14269614    
   1.29409504       4.82962894      -8.00000000       400.483917      -2.09870052    
   1.29409504       4.82962894      -7.00000000       400.483917      -2.09870052    
   1.89704800       4.57987785      -7.00000000       400.483917      -2.09870052    
   1.89704800       4.57987785      -8.00000000       400.483917      -2.09870052    
   1.29409504       4.82962894      -7.00000000       466.885925      -2.07667828    
   1.29409504       4.82962894      -6.00000000       466.885925      -2.07667828    
   1.89704800       4.57987785      -6.00000000       466.885925      -2.07667828    
   1.89704800       4.57987785      -7.00000000       466.885925      -2.07667828    
   1.29409504       4.82962894      -6.00000000       557.160706      -2.06516910    
   1.29409504       4.82962894      -5.00000000       557.160706      -2.06516910    
   1.89704800       4.57987785      -5.00000000       557.160706      -2.06516910    
   1.89704800       4.57987785      -6.00000000       557.160706      -2.06516910    
   1.29409504       4.82962894      -5.00000000       673.675293      -2.05919695    
   1.29409504       4.82962894      -4.00000000       673.675293      -2.05919695    
   1.89704800       4.57987785      -4.00000000       673.675293      -2.05919695    
   1.89704800       4.57987785      -5.00000000       673.675293      -2.05919695    
   1.29409504       4.82962894      -4.00000000       820.409790      -2.05570412    
   1.29409504       4.82962894      -3.00000000       820.409790      -2.05570412    
   1.89704800       4.57987785      -3.00000000       820.409790      -2.05570412    