 VARIABLES="X" "Y" "Z" "abs(p) (Pa)" "angle(p) (rad)"
ZONE N=   1080,E =     600, F=FEPOINT, ET=QUADRILATERAL
   4.82962894       1.29409504      -10.0000000       595.580994      -1.47947586    
   4.82962894       1.29409504      -9.00000000       595.580994      -1.47947586    
   4.91481400      0.647047520      -9.00000000       595.580994      -1.47947586    
   4.91481400      0.647047520      -10.0000000       595.580994      -1.47947586    
   4.82962894       1.29409504      -9.00000000       742.780457      -1.45545864    
   4.82962894       1.29409504      -8.00000000       742.780457      -1.45545864    
   4.91481400      0.647047520      -8.00000000       742.780457      -1.45545864    
   4.91481400      0.647047520      -9.00000000       742.780457      -1.45545864    
   4.82962894       1.29409504      -8.00000000       790.222229      -1.41015184    
   4.82962894       1.29409504      -7.00000000       790.222229      -1.41015184    
   4.91481400      0.647047520      -7.00000000       790.222229      -1.41015184    
   4.91481400      0.647047520      -8.00000000       790.222229      -1.41015184    
   4.82962894       1.29409504      -7.00000000       788.461365      -1.33615458    
   4.82962894       1.29409504      -6.00000000       788.461365      -1.33615458    
   4.91481400      0.647047520      -6.00000000       788.461365      -1.33615458    
   4.91481400      0.647047520      -7.00000000       788.461365      -1.33615458    
   4.82962894       1.29409504      -6.00000000       759.227234      -1.21522379    
   4.82962894       1.29409504      -5.00000000       759.227234      -1.21522379    
   4.91481400      0.647047520      -5.00000000       759.227234      -1.21522379    
   4.91481400      0.647047520      -6.00000000       759.227234      -1.21522379    
   4.82962894       1.29409504      -5.00000000       727.921570      -1.02098727    
   4.82962894       1.29409504      -4.00000000       727.921570      -1.02098727    
   4.91481400      0.647047520      -4.00000000       727.921570      -1.02098727    
   4.91481400      0.647047520      -5.00000000       727.921570      -1.02098727    
   4.82962894       1.29409504      -4.00000000       739.465332     -0.738846183    
   4.82962894       1.29409504      -3.00000000       739.465332     -0.738846183    
   4.91481400      0.647047520      -3.00000000       739.465332     -0.738846183    
   4.91481400      0.647047520      -4.00000000       739.465332     -0.738846183    
   4.82962894       1.29409504      -3.00000000       859.602966     -0.420117378    
   4.82962894       1.29409504      -2.00000000       859.602966     -0.420117378    
   4.91481400      0.647047520      -2.00000000       859.602966     -0.420117378    
   4.91481400      0.647047520      -3.00000000       859.602966     -0.420117378    
   4.82962894       1.29409504      -2.00000000       1143.63513     -0.171180934    
   4.82962894       1.29409504      -1.00000000       1143.63513     -0.171180934    
   4.91481400      0.647047520      -1.00000000       1143.63513     -0.171180934    
   4.91481400      0.647047520      -2.00000000       1143.63513     -0.171180934    
   4.82962894       1.29409504      -1.00000000       1619.65222      -4.47327010E-02
   4.82962894       1.29409504       0.00000000       1619.65222      -4.47327010E-02
   4.91481400      0.647047520       0.00000000       1619.65222      -4.47327010E-02
   4.91481400      0.647047520      -1.00000000       1619.65222      -4.47327010E-02
   4.91481400      0.647047520      -10.0000000       248.997192      -1.49355423    
   4.91481400      0.647047520      -9.00000000       248.997192      -1.49355423    
   5.00000000       0.00000000      -9.00000000       248.997192      -1.49355423    
   5.00000000       0.00000000      -10.0000000       248.997192      -1.49355423    
   4.91481400      0.647047520      -9.00000000       303.175598      -1.47036397    
   4.91481400      0.647047520      -8.00000000       303.175598      -1.47036397    
   5.00000000       0.00000000      -8.00000000       303.175598      -1.47036397    
   5.00000000       0.00000000      -9.00000000       303.175598      -1.47036397    
   4.91481400      0.647047520      -8.00000000       319.958649      -1.42979956    
   4.91481400      0.647047520      -7.00000000       319.958649      -1.42979956    
   5.00000000       0.00000000      -7.00000000       319.958649      -1.42979956    
   5.00000000       0.00000000      -8.00000000       319.958649      -1.42979956    
   4.91481400      0.647047520      -7.00000000       318.944183      -1.36485589    
   4.91481400      0.647047520      -6.00000000       318.944183      -1.36485589    
   5.00000000       0.00000000      -6.00000000       318.944183      -1.36485589    
   5.00000000       0.00000000      -7.00000000       318.944183      -1.36485589    
   4.91481400      0.647047520      -6.00000000       307.382935      -1.25987089    
   4.91481400      0.647047520      -5.00000000       307.382935      -1.25987089    
   5.00000000       0.00000000      -5.00000000       307.382935      -1.25987089    
   5.00000000       0.00000000      -6.00000000       307.382935      -1.25987089    
   4.91481400      0.647047520      -5.00000000       293.427856      -1.09142768    
   4.91481400      0.647047520      -4.00000000       293.427856      -1.09142768    
   5.00000000       0.00000000      -4.00000000       293.427856      -1.09142768    
   5.00000000       0.00000000      -5.00000000       293.427856      -1.09142768    
   4.91481400      0.647047520      -4.00000000       291.316803     -0.839586794    
   4.91481400      0.647047520      -3.00000000       291.316803     -0.839586794    
   5.00000000       0.00000000      -3.00000000       291.316803     -0.839586794    
   5.00000000       0.00000000      -4.00000000       291.316803     -0.839586794    
   4.91481400      0.647047520      -3.00000000       324.171600     -0.532529056    
   4.91481400      0.647047520      -2.00000000       324.171600     -0.532529056    
   5.00000000       0.00000000      -2.00000000       324.171600     -0.532529056    
   5.00000000       0.00000000      -3.00000000       324.171600     -0.532529056    
   4.91481400      0.647047520      -2.00000000       415.668427     -0.266440630    
   4.91481400      0.647047520      -1.00000000       415.668427     -0.266440630    
   5.00000000       0.00000000      -1.00000000       415.668427     -0.266440630    
   5.00000000       0.00000000      -2.00000000       415.668427     -0.266440630    
   4.91481400      0.647047520      -1.00000000       579.101501     -0.114614636    
   4.91481400      0.647047520       0.00000000       579.101501     -0.114614636    
   5.00000000       0.00000000       0.00000000       579.101501     -0.114614636    
   5.00000000       0.00000000      -1.00000000       579.101501     -0.114614636    
   4.33012676       2.50000000      -10.0000000       1399.55066      -1.48198044    
   4.33012676       2.50000000      -9.00000000       1399.55066      -1.48198044    
   4.57987785       1.89704800      -9.00000000       1399.55066      -1.48198044    
   4.57987785       1.89704800      -10.0000000       1399.55066      -1.48198044    
   4.33012676       2.50000000      -9.00000000       1738.08960      -1.45805860    
   4.33012676       2.50000000      -8.00000000       1738.08960      -1.45805860    
   4.57987785       1.89704800      -8.00000000       1738.08960      -1.45805860    
   4.57987785       1.89704800      -9.00000000       1738.08960      -1.45805860    
   4.33012676       2.50000000      -8.00000000       1846.50427      -1.41355646    
   4.33012676       2.50000000      -7.00000000       1846.50427      -1.41355646    
   4.57987785       1.89704800      -7.00000000       1846.50427      -1.41355646    
   4.57987785       1.89704800      -8.00000000       1846.50427      -1.41355646    
   4.33012676       2.50000000      -7.00000000       1842.02527      -1.34112334    
   4.33012676       2.50000000      -6.00000000       1842.02527      -1.34112334    
   4.57987785       1.89704800      -6.00000000       1842.02527      -1.34112334    
   4.57987785       1.89704800      -7.00000000       1842.02527      -1.34112334    
   4.33012676       2.50000000      -6.00000000       1773.84497      -1.22295785    
   4.33012676       2.50000000      -5.00000000       1773.84497      -1.22295785    
   4.57987785       1.89704800      -5.00000000       1773.84497      -1.22295785    
   4.57987785       1.89704800      -6.00000000       1773.84497      -1.22295785    
   4.33012676       2.50000000      -5.00000000       1699.06287      -1.03314281    
   4.33012676       2.50000000      -4.00000000       1699.06287      -1.03314281    
   4.57987785       1.89704800      -4.00000000       1699.06287      -1.03314281    
   4.57987785       1.89704800      -5.00000000       1699.06287      -1.03314281    
   4.33012676       2.50000000      -4.00000000       1718.62671     -0.755894363    
   4.33012676       2.50000000      -3.00000000       1718.62671     -0.755894363    
   4.57987785       1.89704800      -3.00000000       1718.62671     -0.755894363    
   4.57987785       1.89704800      -4.00000000       1718.62671     -0.755894363    
   4.33012676       2.50000000      -3.00000000       1983.08545     -0.438456029    
   4.33012676       2.50000000      -2.00000000       1983.08545     -0.438456029    
   4.57987785       1.89704800      -2.00000000       1983.08545     -0.438456029    
   4.57987785       1.89704800      -3.00000000       1983.08545     -0.438456029    
   4.33012676       2.50000000      -2.00000000       2623.41479     -0.186253101    
   4.33012676       2.50000000      -1.00000000       2623.41479     -0.186253101    
   4.57987785       1.89704800      -1.00000000       2623.41479     -0.186253101    
   4.57987785       1.89704800      -2.00000000       2623.41479     -0.186253101    
   4.33012676       2.50000000      -1.00000000       3706.83838      -5.56408837E-02
   4.33012676       2.50000000       0.00000000       3706.83838      -5.56408837E-02
   4.57987785       1.89704800       0.00000000       3706.83838      -5.56408837E-02
   4.57987785       1.89704800      -1.00000000       3706.83838      -5.56408837E-02
   4.57987785       1.89704800      -10.0000000       1076.57776      -1.48576581    
   4.57987785       1.89704800      -9.00000000       1076.57776      -1.48576581    
   4.82962894       1.29409504      -9.00000000       1076.57776      -1.48576581    
   4.82962894       1.29409504      -10.0000000       1076.57776      -1.48576581    
   4.57987785       1.89704800      -9.00000000       1328.43396      -1.46203017    
   4.57987785       1.89704800      -8.00000000       1328.43396      -1.46203017    
   4.82962894       1.29409504      -8.00000000       1328.43396      -1.46203017    
   4.82962894       1.29409504      -9.00000000       1328.43396      -1.46203017    
   4.57987785       1.89704800      -8.00000000       1408.26978      -1.41877520    
   4.57987785       1.89704800      -7.00000000       1408.26978      -1.41877520    
   4.82962894       1.29409504      -7.00000000       1408.26978      -1.41877520    
   4.82962894       1.29409504      -8.00000000       1408.26978      -1.41877520    
   4.57987785       1.89704800      -7.00000000       1404.47302      -1.34874487    
   4.57987785       1.89704800      -6.00000000       1404.47302      -1.34874487    
   4.82962894       1.29409504      -6.00000000       1404.47302      -1.34874487    
   4.82962894       1.29409504      -7.00000000       1404.47302      -1.34874487    
   4.57987785       1.89704800      -6.00000000       1352.71326      -1.23481774    
   4.57987785       1.89704800      -5.00000000       1352.71326      -1.23481774    
   4.82962894       1.29409504      -5.00000000       1352.71326      -1.23481774    
   4.82962894       1.29409504      -6.00000000       1352.71326      -1.23481774    
   4.57987785       1.89704800      -5.00000000       1293.98962      -1.05182469    
   4.57987785       1.89704800      -4.00000000       1293.98962      -1.05182469    
   4.82962894       1.29409504      -4.00000000       1293.98962      -1.05182469    
   4.82962894       1.29409504      -5.00000000       1293.98962      -1.05182469    
   4.57987785       1.89704800      -4.00000000       1300.62500     -0.782376349    
   4.57987785       1.89704800      -3.00000000       1300.62500     -0.782376349    
   4.82962894       1.29409504      -3.00000000       1300.62500     -0.782376349    
   4.82962894       1.29409504      -4.00000000       1300.62500     -0.782376349    
   4.57987785       1.89704800      -3.00000000       1483.56543     -0.467487782    
   4.57987785       1.89704800      -2.00000000       1483.56543     -0.467487782    
   4.82962894       1.29409504      -2.00000000       1483.56543     -0.467487782    
   4.82962894       1.29409504      -3.00000000       1483.56543     -0.467487782    
   4.57987785       1.89704800      -2.00000000       1944.50403     -0.210471228    
   4.57987785       1.89704800      -1.00000000       1944.50403     -0.210471228    
   4.82962894       1.29409504      -1.00000000       1944.50403     -0.210471228    
   4.82962894       1.29409504      -2.00000000       1944.50403     -0.210471228    
   4.57987785       1.89704800      -1.00000000       2736.77490      -7.32789487E-02
   4.57987785       1.89704800       0.00000000       2736.77490      -7.32789487E-02
   4.82962894       1.29409504       0.00000000       2736.77490      -7.32789487E-02
   4.82962894       1.29409504      -1.00000000       2736.77490      -7.32789487E-02
   3.53553391       3.53553391      -10.0000000       2108.14673      -1.48268819    
   3.53553391       3.53553391      -9.00000000       2108.14673      -1.48268819    
   3.93283010       3.01776695      -9.00000000       2108.14673      -1.48268819    
   3.93283010       3.01776695      -10.0000000       2108.14673      -1.48268819    
   3.53553391       3.53553391      -9.00000000       2614.95386      -1.45879710    
   3.53553391       3.53553391      -8.00000000       2614.95386      -1.45879710    
   3.93283010       3.01776695      -8.00000000       2614.95386      -1.45879710    
   3.93283010       3.01776695      -9.00000000       2614.95386      -1.45879710    
   3.53553391       3.53553391      -8.00000000       2776.95093      -1.41452503    
   3.53553391       3.53553391      -7.00000000       2776.95093      -1.41452503    
   3.93283010       3.01776695      -7.00000000       2776.95093      -1.41452503    
   3.93283010       3.01776695      -8.00000000       2776.95093      -1.41452503    
   3.53553391       3.53553391      -7.00000000       2770.06982      -1.34253776    
   3.53553391       3.53553391      -6.00000000       2770.06982      -1.34253776    
   3.93283010       3.01776695      -6.00000000       2770.06982      -1.34253776    
   3.93283010       3.01776695      -7.00000000       2770.06982      -1.34253776    
   3.53553391       3.53553391      -6.00000000       2667.60474      -1.22515905    
   3.53553391       3.53553391      -5.00000000       2667.60474      -1.22515905    
   3.93283010       3.01776695      -5.00000000       2667.60474      -1.22515905    
   3.93283010       3.01776695      -6.00000000       2667.60474      -1.22515905    
   3.53553391       3.53553391      -5.00000000       2554.48145      -1.03660607    
   3.53553391       3.53553391      -4.00000000       2554.48145      -1.03660607    
   3.93283010       3.01776695      -4.00000000       2554.48145      -1.03660607    
   3.93283010       3.01776695      -5.00000000       2554.48145      -1.03660607    
   3.53553391       3.53553391      -4.00000000       2580.80444     -0.760778844    
   3.53553391       3.53553391      -3.00000000       2580.80444     -0.760778844    
   3.93283010       3.01776695      -3.00000000       2580.80444     -0.760778844    
   3.93283010       3.01776695      -4.00000000       2580.80444     -0.760778844    
   3.53553391       3.53553391      -3.00000000       2971.60864     -0.443760186    
   3.53553391       3.53553391      -2.00000000       2971.60864     -0.443760186    
   3.93283010       3.01776695      -2.00000000       2971.60864     -0.443760186    
   3.93283010       3.01776695      -3.00000000       2971.60864     -0.443760186    
   3.53553391       3.53553391      -2.00000000       3924.58008     -0.190644756    
   3.53553391       3.53553391      -1.00000000       3924.58008     -0.190644756    
   3.93283010       3.01776695      -1.00000000       3924.58008     -0.190644756    
   3.93283010       3.01776695      -2.00000000       3924.58008     -0.190644756    
   3.53553391       3.53553391      -1.00000000       5541.53223      -5.88296205E-02
   3.53553391       3.53553391       0.00000000       5541.53223      -5.88296205E-02
   3.93283010       3.01776695       0.00000000       5541.53223      -5.88296205E-02
   3.93283010       3.01776695      -1.00000000       5541.53223      -5.88296205E-02
   3.93283010       3.01776695      -10.0000000       1830.80688      -1.48470700    
   3.93283010       3.01776695      -9.00000000       1830.80688      -1.48470700    
   4.33012676       2.50000000      -9.00000000       1830.80688      -1.48470700    
   4.33012676       2.50000000      -10.0000000       1830.80688      -1.48470700    
   3.93283010       3.01776695      -9.00000000       2263.17358      -1.46091366    
   3.93283010       3.01776695      -8.00000000       2263.17358      -1.46091366    
   4.33012676       2.50000000      -8.00000000       2263.17358      -1.46091366    
   4.33012676       2.50000000      -9.00000000       2263.17358      -1.46091366    
   3.93283010       3.01776695      -8.00000000       2400.63232      -1.41730595    
   3.93283010       3.01776695      -7.00000000       2400.63232      -1.41730595    
   4.33012676       2.50000000      -7.00000000       2400.63232      -1.41730595    
   4.33012676       2.50000000      -8.00000000       2400.63232      -1.41730595    
   3.93283010       3.01776695      -7.00000000       2394.33447      -1.34659874    
   3.93283010       3.01776695      -6.00000000       2394.33447      -1.34659874    
   4.33012676       2.50000000      -6.00000000       2394.33447      -1.34659874    
   4.33012676       2.50000000      -7.00000000       2394.33447      -1.34659874    
   3.93283010       3.01776695      -6.00000000       2305.96924      -1.23147869    
   3.93283010       3.01776695      -5.00000000       2305.96924      -1.23147869    
   4.33012676       2.50000000      -5.00000000       2305.96924      -1.23147869    
   4.33012676       2.50000000      -6.00000000       2305.96924      -1.23147869    
   3.93283010       3.01776695      -5.00000000       2206.62915      -1.04655969    
   3.93283010       3.01776695      -4.00000000       2206.62915      -1.04655969    
   4.33012676       2.50000000      -4.00000000       2206.62915      -1.04655969    
   4.33012676       2.50000000      -5.00000000       2206.62915      -1.04655969    
   3.93283010       3.01776695      -4.00000000       2221.83643     -0.774879694    
   3.93283010       3.01776695      -3.00000000       2221.83643     -0.774879694    
   4.33012676       2.50000000      -3.00000000       2221.83643     -0.774879694    
   4.33012676       2.50000000      -4.00000000       2221.83643     -0.774879694    
   3.93283010       3.01776695      -3.00000000       2542.63013     -0.459201396    
   3.93283010       3.01776695      -2.00000000       2542.63013     -0.459201396    
   4.33012676       2.50000000      -2.00000000       2542.63013     -0.459201396    
   4.33012676       2.50000000      -3.00000000       2542.63013     -0.459201396    
   3.93283010       3.01776695      -2.00000000       3341.55615     -0.203513324    
   3.93283010       3.01776695      -1.00000000       3341.55615     -0.203513324    
   4.33012676       2.50000000      -1.00000000       3341.55615     -0.203513324    
   4.33012676       2.50000000      -2.00000000       3341.55615     -0.203513324    
   3.93283010       3.01776695      -1.00000000       4708.49951      -6.81968182E-02
   3.93283010       3.01776695       0.00000000       4708.49951      -6.81968182E-02
   4.33012676       2.50000000       0.00000000       4708.49951      -6.81968182E-02
   4.33012676       2.50000000      -1.00000000       4708.49951      -6.81968182E-02
   2.50000000       4.33012676      -10.0000000       2673.07935      -1.48305881    
   2.50000000       4.33012676      -9.00000000       2673.07935      -1.48305881    
   3.01776695       3.93283010      -9.00000000       2673.07935      -1.48305881    
   3.01776695       3.93283010      -10.0000000       2673.07935      -1.48305881    
   2.50000000       4.33012676      -9.00000000       3313.61475      -1.45918453    
   2.50000000       4.33012676      -8.00000000       3313.61475      -1.45918453    
   3.01776695       3.93283010      -8.00000000       3313.61475      -1.45918453    
   3.01776695       3.93283010      -9.00000000       3313.61475      -1.45918453    
   2.50000000       4.33012676      -8.00000000       3518.15894      -1.41503358    
   2.50000000       4.33012676      -7.00000000       3518.15894      -1.41503358    
   3.01776695       3.93283010      -7.00000000       3518.15894      -1.41503358    
   3.01776695       3.93283010      -8.00000000       3518.15894      -1.41503358    
   2.50000000       4.33012676      -7.00000000       3509.34546      -1.34328032    
   2.50000000       4.33012676      -6.00000000       3509.34546      -1.34328032    
   3.01776695       3.93283010      -6.00000000       3509.34546      -1.34328032    
   3.01776695       3.93283010      -7.00000000       3509.34546      -1.34328032    
   2.50000000       4.33012676      -6.00000000       3379.58130      -1.22631443    
   2.50000000       4.33012676      -5.00000000       3379.58130      -1.22631443    
   3.01776695       3.93283010      -5.00000000       3379.58130      -1.22631443    
   3.01776695       3.93283010      -6.00000000       3379.58130      -1.22631443    
   2.50000000       4.33012676      -5.00000000       3235.83521      -1.03842521    
   2.50000000       4.33012676      -4.00000000       3235.83521      -1.03842521    
   3.01776695       3.93283010      -4.00000000       3235.83521      -1.03842521    
   3.01776695       3.93283010      -5.00000000       3235.83521      -1.03842521    
   2.50000000       4.33012676      -4.00000000       3267.13672     -0.763348222    
   2.50000000       4.33012676      -3.00000000       3267.13672     -0.763348222    
   3.01776695       3.93283010      -3.00000000       3267.13672     -0.763348222    
   3.01776695       3.93283010      -4.00000000       3267.13672     -0.763348222    
   2.50000000       4.33012676      -3.00000000       3757.66724     -0.446559817    
   2.50000000       4.33012676      -2.00000000       3757.66724     -0.446559817    
   3.01776695       3.93283010      -2.00000000       3757.66724     -0.446559817    
   3.01776695       3.93283010      -3.00000000       3757.66724     -0.446559817    
   2.50000000       4.33012676      -2.00000000       4958.33057     -0.192968398    
   2.50000000       4.33012676      -1.00000000       4958.33057     -0.192968398    
   3.01776695       3.93283010      -1.00000000       4958.33057     -0.192968398    
   3.01776695       3.93283010      -2.00000000       4958.33057     -0.192968398    
   2.50000000       4.33012676      -1.00000000       6998.61475      -6.05180413E-02
   2.50000000       4.33012676       0.00000000       6998.61475      -6.05180413E-02
   3.01776695       3.93283010       0.00000000       6998.61475      -6.05180413E-02
   3.01776695       3.93283010      -1.00000000       6998.61475      -6.05180413E-02
   3.01776695       3.93283010      -10.0000000       2460.26392      -1.48424339    
   3.01776695       3.93283010      -9.00000000       2460.26392      -1.48424339    
   3.53553391       3.53553391      -9.00000000       2460.26392      -1.48424339    
   3.53553391       3.53553391      -10.0000000       2460.26392      -1.48424339    
   3.01776695       3.93283010      -9.00000000       3043.68018      -1.46042633    
   3.01776695       3.93283010      -8.00000000       3043.68018      -1.46042633    
   3.53553391       3.53553391      -8.00000000       3043.68018      -1.46042633    
   3.53553391       3.53553391      -9.00000000       3043.68018      -1.46042633    
   3.01776695       3.93283010      -8.00000000       3229.39722      -1.41666520    
   3.01776695       3.93283010      -7.00000000       3229.39722      -1.41666520    
   3.53553391       3.53553391      -7.00000000       3229.39722      -1.41666520    
   3.53553391       3.53553391      -8.00000000       3229.39722      -1.41666520    
   3.01776695       3.93283010      -7.00000000       3221.03149      -1.34566295    
   3.01776695       3.93283010      -6.00000000       3221.03149      -1.34566295    
   3.53553391       3.53553391      -6.00000000       3221.03149      -1.34566295    
   3.53553391       3.53553391      -7.00000000       3221.03149      -1.34566295    
   3.01776695       3.93283010      -6.00000000       3102.08643      -1.23002243    
   3.01776695       3.93283010      -5.00000000       3102.08643      -1.23002243    
   3.53553391       3.53553391      -5.00000000       3102.08643      -1.23002243    
   3.53553391       3.53553391      -6.00000000       3102.08643      -1.23002243    
   3.01776695       3.93283010      -5.00000000       2968.91455      -1.04426479    
   3.01776695       3.93283010      -4.00000000       2968.91455      -1.04426479    
   3.53553391       3.53553391      -4.00000000       2968.91455      -1.04426479    
   3.53553391       3.53553391      -5.00000000       2968.91455      -1.04426479    
   3.01776695       3.93283010      -4.00000000       2991.68579     -0.771620512    
   3.01776695       3.93283010      -3.00000000       2991.68579     -0.771620512    
   3.53553391       3.53553391      -3.00000000       2991.68579     -0.771620512    
   3.53553391       3.53553391      -4.00000000       2991.68579     -0.771620512    
   3.01776695       3.93283010      -3.00000000       3428.49219     -0.455614746    
   3.01776695       3.93283010      -2.00000000       3428.49219     -0.455614746    
   3.53553391       3.53553391      -2.00000000       3428.49219     -0.455614746    
   3.53553391       3.53553391      -3.00000000       3428.49219     -0.455614746    
   3.01776695       3.93283010      -2.00000000       4510.95508     -0.200512826    
   3.01776695       3.93283010      -1.00000000       4510.95508     -0.200512826    
   3.53553391       3.53553391      -1.00000000       4510.95508     -0.200512826    
   3.53553391       3.53553391      -2.00000000       4510.95508     -0.200512826    
   3.01776695       3.93283010      -1.00000000       6359.39160      -6.60094246E-02
   3.01776695       3.93283010       0.00000000       6359.39160      -6.60094246E-02
   3.53553391       3.53553391       0.00000000       6359.39160      -6.60094246E-02
   3.53553391       3.53553391      -1.00000000       6359.39160      -6.60094246E-02
   1.29409504       4.82962894      -10.0000000       3055.84180      -1.48331428    
   1.29409504       4.82962894      -9.00000000       3055.84180      -1.48331428    
   1.89704800       4.57987785      -9.00000000       3055.84180      -1.48331428    
   1.89704800       4.57987785      -10.0000000       3055.84180      -1.48331428    
   1.29409504       4.82962894      -9.00000000       3786.45679      -1.45945191    
   1.29409504       4.82962894      -8.00000000       3786.45679      -1.45945191    
   1.89704800       4.57987785      -8.00000000       3786.45679      -1.45945191    
   1.89704800       4.57987785      -9.00000000       3786.45679      -1.45945191    
   1.29409504       4.82962894      -8.00000000       4019.60815      -1.41538489    
   1.29409504       4.82962894      -7.00000000       4019.60815      -1.41538489    
   1.89704800       4.57987785      -7.00000000       4019.60815      -1.41538489    
   1.89704800       4.57987785      -8.00000000       4019.60815      -1.41538489    
   1.29409504       4.82962894      -7.00000000       4009.46265      -1.34379315    
   1.29409504       4.82962894      -6.00000000       4009.46265      -1.34379315    
   1.89704800       4.57987785      -6.00000000       4009.46265      -1.34379315    
   1.89704800       4.57987785      -7.00000000       4009.46265      -1.34379315    
   1.29409504       4.82962894      -6.00000000       3861.24536      -1.22711253    
   1.29409504       4.82962894      -5.00000000       3861.24536      -1.22711253    
   1.89704800       4.57987785      -5.00000000       3861.24536      -1.22711253    
   1.89704800       4.57987785      -6.00000000       3861.24536      -1.22711253    
   1.29409504       4.82962894      -5.00000000       3696.67822      -1.03968179    
   1.29409504       4.82962894      -4.00000000       3696.67822      -1.03968179    
   1.89704800       4.57987785      -4.00000000       3696.67822      -1.03968179    
   1.89704800       4.57987785      -5.00000000       3696.67822      -1.03968179    
   1.29409504       4.82962894      -4.00000000       3730.83130     -0.765125334    
   1.29409504       4.82962894      -3.00000000       3730.83130     -0.765125334    
   1.89704800       4.57987785      -3.00000000       3730.83130     -0.765125334    