 VARIABLES="X" "Y" "Z" "abs(p) (Pa)" "angle(p) (rad)"
ZONE N=   1080,E =     600, F=FEPOINT, ET=QUADRILATERAL
   4.82962894       1.29409504      -10.0000000       246.581955      -1.57079530    
   4.82962894       1.29409504      -9.00000000       246.581955      -1.57079530    
   4.91481400      0.647047520      -9.00000000       246.581955      -1.57079530    
   4.91481400      0.647047520      -10.0000000       246.581955      -1.57079530    
   4.82962894       1.29409504      -9.00000000       309.829926      -1.57079542    
   4.82962894       1.29409504      -8.00000000       309.829926      -1.57079542    
   4.91481400      0.647047520      -8.00000000       309.829926      -1.57079542    
   4.91481400      0.647047520      -9.00000000       309.829926      -1.57079542    
   4.82962894       1.29409504      -8.00000000       345.443359      -1.57079542    
   4.82962894       1.29409504      -7.00000000       345.443359      -1.57079542    
   4.91481400      0.647047520      -7.00000000       345.443359      -1.57079542    
   4.91481400      0.647047520      -8.00000000       345.443359      -1.57079542    
   4.82962894       1.29409504      -7.00000000       369.333984      -1.57079554    
   4.82962894       1.29409504      -6.00000000       369.333984      -1.57079554    
   4.91481400      0.647047520      -6.00000000       369.333984      -1.57079554    
   4.91481400      0.647047520      -7.00000000       369.333984      -1.57079554    
   4.82962894       1.29409504      -6.00000000       386.259277      -1.57079554    
   4.82962894       1.29409504      -5.00000000       386.259277      -1.57079554    
   4.91481400      0.647047520      -5.00000000       386.259277      -1.57079554    
   4.91481400      0.647047520      -6.00000000       386.259277      -1.57079554    
   4.82962894       1.29409504      -5.00000000       398.500214      -1.57079554    
   4.82962894       1.29409504      -4.00000000       398.500214      -1.57079554    
   4.91481400      0.647047520      -4.00000000       398.500214      -1.57079554    
   4.91481400      0.647047520      -5.00000000       398.500214      -1.57079554    
   4.82962894       1.29409504      -4.00000000       407.366760      -1.57079554    
   4.82962894       1.29409504      -3.00000000       407.366760      -1.57079554    
   4.91481400      0.647047520      -3.00000000       407.366760      -1.57079554    
   4.91481400      0.647047520      -4.00000000       407.366760      -1.57079554    
   4.82962894       1.29409504      -3.00000000       413.567413      -1.57079554    
   4.82962894       1.29409504      -2.00000000       413.567413      -1.57079554    
   4.91481400      0.647047520      -2.00000000       413.567413      -1.57079554    
   4.91481400      0.647047520      -3.00000000       413.567413      -1.57079554    
   4.82962894       1.29409504      -2.00000000       417.543854      -1.57079554    
   4.82962894       1.29409504      -1.00000000       417.543854      -1.57079554    
   4.91481400      0.647047520      -1.00000000       417.543854      -1.57079554    
   4.91481400      0.647047520      -2.00000000       417.543854      -1.57079554    
   4.82962894       1.29409504      -1.00000000       419.536835      -1.57079554    
   4.82962894       1.29409504       0.00000000       419.536835      -1.57079554    
   4.91481400      0.647047520       0.00000000       419.536835      -1.57079554    
   4.91481400      0.647047520      -1.00000000       419.536835      -1.57079554    
   4.91481400      0.647047520      -10.0000000       250.296051      -1.57079518    
   4.91481400      0.647047520      -9.00000000       250.296051      -1.57079518    
   5.00000000       0.00000000      -9.00000000       250.296051      -1.57079518    
   5.00000000       0.00000000      -10.0000000       250.296051      -1.57079518    
   4.91481400      0.647047520      -9.00000000       314.571045      -1.57079542    
   4.91481400      0.647047520      -8.00000000       314.571045      -1.57079542    
   5.00000000       0.00000000      -8.00000000       314.571045      -1.57079542    
   5.00000000       0.00000000      -9.00000000       314.571045      -1.57079542    
   4.91481400      0.647047520      -8.00000000       350.775146      -1.57079542    
   4.91481400      0.647047520      -7.00000000       350.775146      -1.57079542    
   5.00000000       0.00000000      -7.00000000       350.775146      -1.57079542    
   5.00000000       0.00000000      -8.00000000       350.775146      -1.57079542    
   4.91481400      0.647047520      -7.00000000       375.061340      -1.57079554    
   4.91481400      0.647047520      -6.00000000       375.061340      -1.57079554    
   5.00000000       0.00000000      -6.00000000       375.061340      -1.57079554    
   5.00000000       0.00000000      -7.00000000       375.061340      -1.57079554    
   4.91481400      0.647047520      -6.00000000       392.267517      -1.57079554    
   4.91481400      0.647047520      -5.00000000       392.267517      -1.57079554    
   5.00000000       0.00000000      -5.00000000       392.267517      -1.57079554    
   5.00000000       0.00000000      -6.00000000       392.267517      -1.57079554    
   4.91481400      0.647047520      -5.00000000       404.711853      -1.57079554    
   4.91481400      0.647047520      -4.00000000       404.711853      -1.57079554    
   5.00000000       0.00000000      -4.00000000       404.711853      -1.57079554    
   5.00000000       0.00000000      -5.00000000       404.711853      -1.57079554    
   4.91481400      0.647047520      -4.00000000       413.725189      -1.57079554    
   4.91481400      0.647047520      -3.00000000       413.725189      -1.57079554    
   5.00000000       0.00000000      -3.00000000       413.725189      -1.57079554    
   5.00000000       0.00000000      -4.00000000       413.725189      -1.57079554    
   4.91481400      0.647047520      -3.00000000       420.028870      -1.57079554    
   4.91481400      0.647047520      -2.00000000       420.028870      -1.57079554    
   5.00000000       0.00000000      -2.00000000       420.028870      -1.57079554    
   5.00000000       0.00000000      -3.00000000       420.028870      -1.57079554    
   4.91481400      0.647047520      -2.00000000       424.071503      -1.57079554    
   4.91481400      0.647047520      -1.00000000       424.071503      -1.57079554    
   5.00000000       0.00000000      -1.00000000       424.071503      -1.57079554    
   5.00000000       0.00000000      -2.00000000       424.071503      -1.57079554    
   4.91481400      0.647047520      -1.00000000       426.101624      -1.57079554    
   4.91481400      0.647047520       0.00000000       426.101624      -1.57079554    
   5.00000000       0.00000000       0.00000000       426.101624      -1.57079554    
   5.00000000       0.00000000      -1.00000000       426.101624      -1.57079554    
   4.33012676       2.50000000      -10.0000000       226.063782      -1.57079518    
   4.33012676       2.50000000      -9.00000000       226.063782      -1.57079518    
   4.57987785       1.89704800      -9.00000000       226.063782      -1.57079518    
   4.57987785       1.89704800      -10.0000000       226.063782      -1.57079518    
   4.33012676       2.50000000      -9.00000000       283.974060      -1.57079542    
   4.33012676       2.50000000      -8.00000000       283.974060      -1.57079542    
   4.57987785       1.89704800      -8.00000000       283.974060      -1.57079542    
   4.57987785       1.89704800      -9.00000000       283.974060      -1.57079542    
   4.33012676       2.50000000      -8.00000000       316.570618      -1.57079542    
   4.33012676       2.50000000      -7.00000000       316.570618      -1.57079542    
   4.57987785       1.89704800      -7.00000000       316.570618      -1.57079542    
   4.57987785       1.89704800      -8.00000000       316.570618      -1.57079542    
   4.33012676       2.50000000      -7.00000000       338.436523      -1.57079554    
   4.33012676       2.50000000      -6.00000000       338.436523      -1.57079554    
   4.57987785       1.89704800      -6.00000000       338.436523      -1.57079554    
   4.57987785       1.89704800      -7.00000000       338.436523      -1.57079554    
   4.33012676       2.50000000      -6.00000000       353.927704      -1.57079554    
   4.33012676       2.50000000      -5.00000000       353.927704      -1.57079554    
   4.57987785       1.89704800      -5.00000000       353.927704      -1.57079554    
   4.57987785       1.89704800      -6.00000000       353.927704      -1.57079554    
   4.33012676       2.50000000      -5.00000000       365.131348      -1.57079554    
   4.33012676       2.50000000      -4.00000000       365.131348      -1.57079554    
   4.57987785       1.89704800      -4.00000000       365.131348      -1.57079554    
   4.57987785       1.89704800      -5.00000000       365.131348      -1.57079554    
   4.33012676       2.50000000      -4.00000000       373.246613      -1.57079554    
   4.33012676       2.50000000      -3.00000000       373.246613      -1.57079554    
   4.57987785       1.89704800      -3.00000000       373.246613      -1.57079554    
   4.57987785       1.89704800      -4.00000000       373.246613      -1.57079554    
   4.33012676       2.50000000      -3.00000000       378.922089      -1.57079554    
   4.33012676       2.50000000      -2.00000000       378.922089      -1.57079554    
   4.57987785       1.89704800      -2.00000000       378.922089      -1.57079554    
   4.57987785       1.89704800      -3.00000000       378.922089      -1.57079554    
   4.33012676       2.50000000      -2.00000000       382.561432      -1.57079554    
   4.33012676       2.50000000      -1.00000000       382.561432      -1.57079554    
   4.57987785       1.89704800      -1.00000000       382.561432      -1.57079554    
   4.57987785       1.89704800      -2.00000000       382.561432      -1.57079554    
   4.33012676       2.50000000      -1.00000000       384.381165      -1.57079554    
   4.33012676       2.50000000       0.00000000       384.381165      -1.57079554    
   4.57987785       1.89704800       0.00000000       384.381165      -1.57079554    
   4.57987785       1.89704800      -1.00000000       384.381165      -1.57079554    
   4.57987785       1.89704800      -10.0000000       236.952850      -1.57079530    
   4.57987785       1.89704800      -9.00000000       236.952850      -1.57079530    
   4.82962894       1.29409504      -9.00000000       236.952850      -1.57079530    
   4.82962894       1.29409504      -10.0000000       236.952850      -1.57079530    
   4.57987785       1.89704800      -9.00000000       297.874878      -1.57079542    
   4.57987785       1.89704800      -8.00000000       297.874878      -1.57079542    
   4.82962894       1.29409504      -8.00000000       297.874878      -1.57079542    
   4.82962894       1.29409504      -9.00000000       297.874878      -1.57079542    
   4.57987785       1.89704800      -8.00000000       332.201904      -1.57079542    
   4.57987785       1.89704800      -7.00000000       332.201904      -1.57079542    
   4.82962894       1.29409504      -7.00000000       332.201904      -1.57079542    
   4.82962894       1.29409504      -8.00000000       332.201904      -1.57079542    
   4.57987785       1.89704800      -7.00000000       355.229187      -1.57079554    
   4.57987785       1.89704800      -6.00000000       355.229187      -1.57079554    
   4.82962894       1.29409504      -6.00000000       355.229187      -1.57079554    
   4.82962894       1.29409504      -7.00000000       355.229187      -1.57079554    
   4.57987785       1.89704800      -6.00000000       371.544128      -1.57079554    
   4.57987785       1.89704800      -5.00000000       371.544128      -1.57079554    
   4.82962894       1.29409504      -5.00000000       371.544128      -1.57079554    
   4.82962894       1.29409504      -6.00000000       371.544128      -1.57079554    
   4.57987785       1.89704800      -5.00000000       383.343353      -1.57079554    
   4.57987785       1.89704800      -4.00000000       383.343353      -1.57079554    
   4.82962894       1.29409504      -4.00000000       383.343353      -1.57079554    
   4.82962894       1.29409504      -5.00000000       383.343353      -1.57079554    
   4.57987785       1.89704800      -4.00000000       391.888916      -1.57079554    
   4.57987785       1.89704800      -3.00000000       391.888916      -1.57079554    
   4.82962894       1.29409504      -3.00000000       391.888916      -1.57079554    
   4.82962894       1.29409504      -4.00000000       391.888916      -1.57079554    
   4.57987785       1.89704800      -3.00000000       397.866486      -1.57079554    
   4.57987785       1.89704800      -2.00000000       397.866486      -1.57079554    
   4.82962894       1.29409504      -2.00000000       397.866486      -1.57079554    
   4.82962894       1.29409504      -3.00000000       397.866486      -1.57079554    
   4.57987785       1.89704800      -2.00000000       401.699646      -1.57079554    
   4.57987785       1.89704800      -1.00000000       401.699646      -1.57079554    
   4.82962894       1.29409504      -1.00000000       401.699646      -1.57079554    
   4.82962894       1.29409504      -2.00000000       401.699646      -1.57079554    
   4.57987785       1.89704800      -1.00000000       403.628448      -1.57079554    
   4.57987785       1.89704800       0.00000000       403.628448      -1.57079554    
   4.82962894       1.29409504       0.00000000       403.628448      -1.57079554    
   4.82962894       1.29409504      -1.00000000       403.628448      -1.57079554    
   3.53553391       3.53553391      -10.0000000       190.139862      -1.57079530    
   3.53553391       3.53553391      -9.00000000       190.139862      -1.57079530    
   3.93283010       3.01776695      -9.00000000       190.139862      -1.57079530    
   3.93283010       3.01776695      -10.0000000       190.139862      -1.57079530    
   3.53553391       3.53553391      -9.00000000       238.766006      -1.57079542    
   3.53553391       3.53553391      -8.00000000       238.766006      -1.57079542    
   3.93283010       3.01776695      -8.00000000       238.766006      -1.57079542    
   3.93283010       3.01776695      -9.00000000       238.766006      -1.57079542    
   3.53553391       3.53553391      -8.00000000       266.123779      -1.57079542    
   3.53553391       3.53553391      -7.00000000       266.123779      -1.57079542    
   3.93283010       3.01776695      -7.00000000       266.123779      -1.57079542    
   3.93283010       3.01776695      -8.00000000       266.123779      -1.57079542    
   3.53553391       3.53553391      -7.00000000       284.475922      -1.57079554    
   3.53553391       3.53553391      -6.00000000       284.475922      -1.57079554    
   3.93283010       3.01776695      -6.00000000       284.475922      -1.57079554    
   3.93283010       3.01776695      -7.00000000       284.475922      -1.57079554    
   3.53553391       3.53553391      -6.00000000       297.476227      -1.57079554    
   3.53553391       3.53553391      -5.00000000       297.476227      -1.57079554    
   3.93283010       3.01776695      -5.00000000       297.476227      -1.57079554    
   3.93283010       3.01776695      -6.00000000       297.476227      -1.57079554    
   3.53553391       3.53553391      -5.00000000       306.879547      -1.57079554    
   3.53553391       3.53553391      -4.00000000       306.879547      -1.57079554    
   3.93283010       3.01776695      -4.00000000       306.879547      -1.57079554    
   3.93283010       3.01776695      -5.00000000       306.879547      -1.57079554    
   3.53553391       3.53553391      -4.00000000       313.690613      -1.57079554    
   3.53553391       3.53553391      -3.00000000       313.690613      -1.57079554    
   3.93283010       3.01776695      -3.00000000       313.690613      -1.57079554    
   3.93283010       3.01776695      -4.00000000       313.690613      -1.57079554    
   3.53553391       3.53553391      -3.00000000       318.453491      -1.57079554    
   3.53553391       3.53553391      -2.00000000       318.453491      -1.57079554    
   3.93283010       3.01776695      -2.00000000       318.453491      -1.57079554    
   3.93283010       3.01776695      -3.00000000       318.453491      -1.57079554    
   3.53553391       3.53553391      -2.00000000       321.508179      -1.57079554    
   3.53553391       3.53553391      -1.00000000       321.508179      -1.57079554    
   3.93283010       3.01776695      -1.00000000       321.508179      -1.57079554    
   3.93283010       3.01776695      -2.00000000       321.508179      -1.57079554    
   3.53553391       3.53553391      -1.00000000       323.030701      -1.57079554    
   3.53553391       3.53553391       0.00000000       323.030701      -1.57079554    
   3.93283010       3.01776695       0.00000000       323.030701      -1.57079554    
   3.93283010       3.01776695      -1.00000000       323.030701      -1.57079554    
   3.93283010       3.01776695      -10.0000000       207.461731      -1.57079518    
   3.93283010       3.01776695      -9.00000000       207.461731      -1.57079518    
   4.33012676       2.50000000      -9.00000000       207.461731      -1.57079518    
   4.33012676       2.50000000      -10.0000000       207.461731      -1.57079518    
   3.93283010       3.01776695      -9.00000000       260.879272      -1.57079542    
   3.93283010       3.01776695      -8.00000000       260.879272      -1.57079542    
   4.33012676       2.50000000      -8.00000000       260.879272      -1.57079542    
   4.33012676       2.50000000      -9.00000000       260.879272      -1.57079542    
   3.93283010       3.01776695      -8.00000000       290.990387      -1.57079542    
   3.93283010       3.01776695      -7.00000000       290.990387      -1.57079542    
   4.33012676       2.50000000      -7.00000000       290.990387      -1.57079542    
   4.33012676       2.50000000      -8.00000000       290.990387      -1.57079542    
   3.93283010       3.01776695      -7.00000000       311.188965      -1.57079554    
   3.93283010       3.01776695      -6.00000000       311.188965      -1.57079554    
   4.33012676       2.50000000      -6.00000000       311.188965      -1.57079554    
   4.33012676       2.50000000      -7.00000000       311.188965      -1.57079554    
   3.93283010       3.01776695      -6.00000000       325.500793      -1.57079554    
   3.93283010       3.01776695      -5.00000000       325.500793      -1.57079554    
   4.33012676       2.50000000      -5.00000000       325.500793      -1.57079554    
   4.33012676       2.50000000      -6.00000000       325.500793      -1.57079554    
   3.93283010       3.01776695      -5.00000000       335.850281      -1.57079554    
   3.93283010       3.01776695      -4.00000000       335.850281      -1.57079554    
   4.33012676       2.50000000      -4.00000000       335.850281      -1.57079554    
   4.33012676       2.50000000      -5.00000000       335.850281      -1.57079554    
   3.93283010       3.01776695      -4.00000000       343.346588      -1.57079554    
   3.93283010       3.01776695      -3.00000000       343.346588      -1.57079554    
   4.33012676       2.50000000      -3.00000000       343.346588      -1.57079554    
   4.33012676       2.50000000      -4.00000000       343.346588      -1.57079554    
   3.93283010       3.01776695      -3.00000000       348.590149      -1.57079554    
   3.93283010       3.01776695      -2.00000000       348.590149      -1.57079554    
   4.33012676       2.50000000      -2.00000000       348.590149      -1.57079554    
   4.33012676       2.50000000      -3.00000000       348.590149      -1.57079554    
   3.93283010       3.01776695      -2.00000000       351.952423      -1.57079554    
   3.93283010       3.01776695      -1.00000000       351.952423      -1.57079554    
   4.33012676       2.50000000      -1.00000000       351.952423      -1.57079554    
   4.33012676       2.50000000      -2.00000000       351.952423      -1.57079554    
   3.93283010       3.01776695      -1.00000000       353.648651      -1.57079554    
   3.93283010       3.01776695       0.00000000       353.648651      -1.57079554    
   4.33012676       2.50000000       0.00000000       353.648651      -1.57079554    
   4.33012676       2.50000000      -1.00000000       353.648651      -1.57079554    
   2.50000000       4.33012676      -10.0000000       141.258102      -1.57079530    
   2.50000000       4.33012676      -9.00000000       141.258102      -1.57079530    
   3.01776695       3.93283010      -9.00000000       141.258102      -1.57079530    
   3.01776695       3.93283010      -10.0000000       141.258102      -1.57079530    
   2.50000000       4.33012676      -9.00000000       177.286362      -1.57079542    
   2.50000000       4.33012676      -8.00000000       177.286362      -1.57079542    
   3.01776695       3.93283010      -8.00000000       177.286362      -1.57079542    
   3.01776695       3.93283010      -9.00000000       177.286362      -1.57079542    
   2.50000000       4.33012676      -8.00000000       197.541138      -1.57079542    
   2.50000000       4.33012676      -7.00000000       197.541138      -1.57079542    
   3.01776695       3.93283010      -7.00000000       197.541138      -1.57079542    
   3.01776695       3.93283010      -8.00000000       197.541138      -1.57079542    
   2.50000000       4.33012676      -7.00000000       211.128479      -1.57079554    
   2.50000000       4.33012676      -6.00000000       211.128479      -1.57079554    
   3.01776695       3.93283010      -6.00000000       211.128479      -1.57079554    
   3.01776695       3.93283010      -7.00000000       211.128479      -1.57079554    
   2.50000000       4.33012676      -6.00000000       220.752380      -1.57079554    
   2.50000000       4.33012676      -5.00000000       220.752380      -1.57079554    
   3.01776695       3.93283010      -5.00000000       220.752380      -1.57079554    
   3.01776695       3.93283010      -6.00000000       220.752380      -1.57079554    
   2.50000000       4.33012676      -5.00000000       227.714157      -1.57079554    
   2.50000000       4.33012676      -4.00000000       227.714157      -1.57079554    
   3.01776695       3.93283010      -4.00000000       227.714157      -1.57079554    
   3.01776695       3.93283010      -5.00000000       227.714157      -1.57079554    
   2.50000000       4.33012676      -4.00000000       232.757050      -1.57079554    
   2.50000000       4.33012676      -3.00000000       232.757050      -1.57079554    
   3.01776695       3.93283010      -3.00000000       232.757050      -1.57079554    
   3.01776695       3.93283010      -4.00000000       232.757050      -1.57079554    
   2.50000000       4.33012676      -3.00000000       236.282928      -1.57079554    
   2.50000000       4.33012676      -2.00000000       236.282928      -1.57079554    
   3.01776695       3.93283010      -2.00000000       236.282928      -1.57079554    
   3.01776695       3.93283010      -3.00000000       236.282928      -1.57079554    
   2.50000000       4.33012676      -2.00000000       238.543777      -1.57079554    
   2.50000000       4.33012676      -1.00000000       238.543777      -1.57079554    
   3.01776695       3.93283010      -1.00000000       238.543777      -1.57079554    
   3.01776695       3.93283010      -2.00000000       238.543777      -1.57079554    
   2.50000000       4.33012676      -1.00000000       239.666016      -1.57079554    
   2.50000000       4.33012676       0.00000000       239.666016      -1.57079554    
   3.01776695       3.93283010       0.00000000       239.666016      -1.57079554    
   3.01776695       3.93283010      -1.00000000       239.666016      -1.57079554    
   3.01776695       3.93283010      -10.0000000       163.832169      -1.57079518    
   3.01776695       3.93283010      -9.00000000       163.832169      -1.57079518    
   3.53553391       3.53553391      -9.00000000       163.832169      -1.57079518    
   3.53553391       3.53553391      -10.0000000       163.832169      -1.57079518    
   3.01776695       3.93283010      -9.00000000       206.104904      -1.57079542    
   3.01776695       3.93283010      -8.00000000       206.104904      -1.57079542    
   3.53553391       3.53553391      -8.00000000       206.104904      -1.57079542    
   3.53553391       3.53553391      -9.00000000       206.104904      -1.57079542    
   3.01776695       3.93283010      -8.00000000       229.947662      -1.57079542    
   3.01776695       3.93283010      -7.00000000       229.947662      -1.57079542    
   3.53553391       3.53553391      -7.00000000       229.947662      -1.57079542    
   3.53553391       3.53553391      -8.00000000       229.947662      -1.57079542    
   3.01776695       3.93283010      -7.00000000       245.941132      -1.57079554    
   3.01776695       3.93283010      -6.00000000       245.941132      -1.57079554    
   3.53553391       3.53553391      -6.00000000       245.941132      -1.57079554    
   3.53553391       3.53553391      -7.00000000       245.941132      -1.57079554    
   3.01776695       3.93283010      -6.00000000       257.274475      -1.57079554    
   3.01776695       3.93283010      -5.00000000       257.274475      -1.57079554    
   3.53553391       3.53553391      -5.00000000       257.274475      -1.57079554    
   3.53553391       3.53553391      -6.00000000       257.274475      -1.57079554    
   3.01776695       3.93283010      -5.00000000       265.469360      -1.57079554    
   3.01776695       3.93283010      -4.00000000       265.469360      -1.57079554    
   3.53553391       3.53553391      -4.00000000       265.469360      -1.57079554    
   3.53553391       3.53553391      -5.00000000       265.469360      -1.57079554    
   3.01776695       3.93283010      -4.00000000       271.405304      -1.57079554    
   3.01776695       3.93283010      -3.00000000       271.405304      -1.57079554    
   3.53553391       3.53553391      -3.00000000       271.405304      -1.57079554    
   3.53553391       3.53553391      -4.00000000       271.405304      -1.57079554    
   3.01776695       3.93283010      -3.00000000       275.557831      -1.57079554    
   3.01776695       3.93283010      -2.00000000       275.557831      -1.57079554    
   3.53553391       3.53553391      -2.00000000       275.557831      -1.57079554    
   3.53553391       3.53553391      -3.00000000       275.557831      -1.57079554    
   3.01776695       3.93283010      -2.00000000       278.220306      -1.57079554    
   3.01776695       3.93283010      -1.00000000       278.220306      -1.57079554    
   3.53553391       3.53553391      -1.00000000       278.220306      -1.57079554    
   3.53553391       3.53553391      -2.00000000       278.220306      -1.57079554    
   3.01776695       3.93283010      -1.00000000       279.568268      -1.57079554    
   3.01776695       3.93283010       0.00000000       279.568268      -1.57079554    
   3.53553391       3.53553391       0.00000000       279.568268      -1.57079554    
   3.53553391       3.53553391      -1.00000000       279.568268      -1.57079554    
   1.29409504       4.82962894      -10.0000000       82.7497635      -1.57079530    
   1.29409504       4.82962894      -9.00000000       82.7497635      -1.57079530    
   1.89704800       4.57987785      -9.00000000       82.7497635      -1.57079530    
   1.89704800       4.57987785      -10.0000000       82.7497635      -1.57079530    
   1.29409504       4.82962894      -9.00000000       103.724792      -1.57079542    
   1.29409504       4.82962894      -8.00000000       103.724792      -1.57079542    
   1.89704800       4.57987785      -8.00000000       103.724792      -1.57079542    
   1.89704800       4.57987785      -9.00000000       103.724792      -1.57079542    
   1.29409504       4.82962894      -8.00000000       115.496170      -1.57079542    
   1.29409504       4.82962894      -7.00000000       115.496170      -1.57079542    
   1.89704800       4.57987785      -7.00000000       115.496170      -1.57079542    
   1.89704800       4.57987785      -8.00000000       115.496170      -1.57079542    
   1.29409504       4.82962894      -7.00000000       123.392807      -1.57079554    
   1.29409504       4.82962894      -6.00000000       123.392807      -1.57079554    
   1.89704800       4.57987785      -6.00000000       123.392807      -1.57079554    
   1.89704800       4.57987785      -7.00000000       123.392807      -1.57079554    
   1.29409504       4.82962894      -6.00000000       128.984604      -1.57079554    
   1.29409504       4.82962894      -5.00000000       128.984604      -1.57079554    
   1.89704800       4.57987785      -5.00000000       128.984604      -1.57079554    
   1.89704800       4.57987785      -6.00000000       128.984604      -1.57079554    
   1.29409504       4.82962894      -5.00000000       133.030777      -1.57079554    
   1.29409504       4.82962894      -4.00000000       133.030777      -1.57079554    
   1.89704800       4.57987785      -4.00000000       133.030777      -1.57079554    
   1.89704800       4.57987785      -5.00000000       133.030777      -1.57079554    
   1.29409504       4.82962894      -4.00000000       135.961380      -1.57079554    
   1.29409504       4.82962894      -3.00000000       135.961380      -1.57079554    
   1.89704800       4.57987785      -3.00000000       135.961380      -1.57079554    