 VARIABLES="X" "Y" "Z" "abs(p) (Pa)" "angle(p) (rad)"
ZONE N=   1080,E =     600, F=FEPOINT, ET=QUADRILATERAL
   4.82962894       1.29409504      -10.0000000       632.848145      -1.50733972    
   4.82962894       1.29409504      -9.00000000       632.848145      -1.50733972    
   4.91481400      0.647047520      -9.00000000       632.848145      -1.50733972    
   4.91481400      0.647047520      -10.0000000       632.848145      -1.50733972    
   4.82962894       1.29409504      -9.00000000       787.497620      -1.48833740    
   4.82962894       1.29409504      -8.00000000       787.497620      -1.48833740    
   4.91481400      0.647047520      -8.00000000       787.497620      -1.48833740    
   4.91481400      0.647047520      -9.00000000       787.497620      -1.48833740    
   4.82962894       1.29409504      -8.00000000       835.808838      -1.45269203    
   4.82962894       1.29409504      -7.00000000       835.808838      -1.45269203    
   4.91481400      0.647047520      -7.00000000       835.808838      -1.45269203    
   4.91481400      0.647047520      -8.00000000       835.808838      -1.45269203    
   4.82962894       1.29409504      -7.00000000       829.163086      -1.39210808    
   4.82962894       1.29409504      -6.00000000       829.163086      -1.39210808    
   4.91481400      0.647047520      -6.00000000       829.163086      -1.39210808    
   4.91481400      0.647047520      -7.00000000       829.163086      -1.39210808    
   4.82962894       1.29409504      -6.00000000       786.927063      -1.28883600    
   4.82962894       1.29409504      -5.00000000       786.927063      -1.28883600    
   4.91481400      0.647047520      -5.00000000       786.927063      -1.28883600    
   4.91481400      0.647047520      -6.00000000       786.927063      -1.28883600    
   4.82962894       1.29409504      -5.00000000       730.535278      -1.11076081    
   4.82962894       1.29409504      -4.00000000       730.535278      -1.11076081    
   4.91481400      0.647047520      -4.00000000       730.535278      -1.11076081    
   4.91481400      0.647047520      -5.00000000       730.535278      -1.11076081    
   4.82962894       1.29409504      -4.00000000       704.393311     -0.820310175    
   4.82962894       1.29409504      -3.00000000       704.393311     -0.820310175    
   4.91481400      0.647047520      -3.00000000       704.393311     -0.820310175    
   4.91481400      0.647047520      -4.00000000       704.393311     -0.820310175    
   4.82962894       1.29409504      -3.00000000       789.685974     -0.448960185    
   4.82962894       1.29409504      -2.00000000       789.685974     -0.448960185    
   4.91481400      0.647047520      -2.00000000       789.685974     -0.448960185    
   4.91481400      0.647047520      -3.00000000       789.685974     -0.448960185    
   4.82962894       1.29409504      -2.00000000       1063.81519     -0.143317580    
   4.82962894       1.29409504      -1.00000000       1063.81519     -0.143317580    
   4.91481400      0.647047520      -1.00000000       1063.81519     -0.143317580    
   4.91481400      0.647047520      -2.00000000       1063.81519     -0.143317580    
   4.82962894       1.29409504      -1.00000000       1559.43518       8.60287435E-03
   4.82962894       1.29409504       0.00000000       1559.43518       8.60287435E-03
   4.91481400      0.647047520       0.00000000       1559.43518       8.60287435E-03
   4.91481400      0.647047520      -1.00000000       1559.43518       8.60287435E-03
   4.91481400      0.647047520      -10.0000000       263.829193      -1.51695573    
   4.91481400      0.647047520      -9.00000000       263.829193      -1.51695573    
   5.00000000       0.00000000      -9.00000000       263.829193      -1.51695573    
   5.00000000       0.00000000      -10.0000000       263.829193      -1.51695573    
   4.91481400      0.647047520      -9.00000000       320.788330      -1.49880600    
   4.91481400      0.647047520      -8.00000000       320.788330      -1.49880600    
   5.00000000       0.00000000      -8.00000000       320.788330      -1.49880600    
   5.00000000       0.00000000      -9.00000000       320.788330      -1.49880600    
   4.91481400      0.647047520      -8.00000000       337.973267      -1.46691358    
   4.91481400      0.647047520      -7.00000000       337.973267      -1.46691358    
   5.00000000       0.00000000      -7.00000000       337.973267      -1.46691358    
   5.00000000       0.00000000      -8.00000000       337.973267      -1.46691358    
   4.91481400      0.647047520      -7.00000000       335.402618      -1.41376376    
   4.91481400      0.647047520      -6.00000000       335.402618      -1.41376376    
   5.00000000       0.00000000      -6.00000000       335.402618      -1.41376376    
   5.00000000       0.00000000      -7.00000000       335.402618      -1.41376376    
   4.91481400      0.647047520      -6.00000000       319.586639      -1.32445967    
   4.91481400      0.647047520      -5.00000000       319.586639      -1.32445967    
   5.00000000       0.00000000      -5.00000000       319.586639      -1.32445967    
   5.00000000       0.00000000      -6.00000000       319.586639      -1.32445967    
   4.91481400      0.647047520      -5.00000000       297.358490      -1.17207718    
   4.91481400      0.647047520      -4.00000000       297.358490      -1.17207718    
   5.00000000       0.00000000      -4.00000000       297.358490      -1.17207718    
   5.00000000       0.00000000      -5.00000000       297.358490      -1.17207718    
   4.91481400      0.647047520      -4.00000000       282.274078     -0.919940233    
   4.91481400      0.647047520      -3.00000000       282.274078     -0.919940233    
   5.00000000       0.00000000      -3.00000000       282.274078     -0.919940233    
   5.00000000       0.00000000      -4.00000000       282.274078     -0.919940233    
   4.91481400      0.647047520      -3.00000000       301.391846     -0.573039234    
   4.91481400      0.647047520      -2.00000000       301.391846     -0.573039234    
   5.00000000       0.00000000      -2.00000000       301.391846     -0.573039234    
   5.00000000       0.00000000      -3.00000000       301.391846     -0.573039234    
   4.91481400      0.647047520      -2.00000000       386.867279     -0.250368416    
   4.91481400      0.647047520      -1.00000000       386.867279     -0.250368416    
   5.00000000       0.00000000      -1.00000000       386.867279     -0.250368416    
   5.00000000       0.00000000      -2.00000000       386.867279     -0.250368416    
   4.91481400      0.647047520      -1.00000000       555.879089      -6.73981234E-02
   4.91481400      0.647047520       0.00000000       555.879089      -6.73981234E-02
   5.00000000       0.00000000       0.00000000       555.879089      -6.73981234E-02
   5.00000000       0.00000000      -1.00000000       555.879089      -6.73981234E-02
   4.33012676       2.50000000      -10.0000000       1486.38721      -1.50904644    
   4.33012676       2.50000000      -9.00000000       1486.38721      -1.50904644    
   4.57987785       1.89704800      -9.00000000       1486.38721      -1.50904644    
   4.57987785       1.89704800      -10.0000000       1486.38721      -1.50904644    
   4.33012676       2.50000000      -9.00000000       1842.10071      -1.49016035    
   4.33012676       2.50000000      -8.00000000       1842.10071      -1.49016035    
   4.57987785       1.89704800      -8.00000000       1842.10071      -1.49016035    
   4.57987785       1.89704800      -9.00000000       1842.10071      -1.49016035    
   4.33012676       2.50000000      -8.00000000       1952.60596      -1.45515370    
   4.33012676       2.50000000      -7.00000000       1952.60596      -1.45515370    
   4.57987785       1.89704800      -7.00000000       1952.60596      -1.45515370    
   4.57987785       1.89704800      -8.00000000       1952.60596      -1.45515370    
   4.33012676       2.50000000      -7.00000000       1937.15881      -1.39585733    
   4.33012676       2.50000000      -6.00000000       1937.15881      -1.39585733    
   4.57987785       1.89704800      -6.00000000       1937.15881      -1.39585733    
   4.57987785       1.89704800      -7.00000000       1937.15881      -1.39585733    
   4.33012676       2.50000000      -6.00000000       1839.64771      -1.29502368    
   4.33012676       2.50000000      -5.00000000       1839.64771      -1.29502368    
   4.57987785       1.89704800      -5.00000000       1839.64771      -1.29502368    
   4.57987785       1.89704800      -6.00000000       1839.64771      -1.29502368    
   4.33012676       2.50000000      -5.00000000       1708.18457      -1.12142897    
   4.33012676       2.50000000      -4.00000000       1708.18457      -1.12142897    
   4.57987785       1.89704800      -4.00000000       1708.18457      -1.12142897    
   4.57987785       1.89704800      -5.00000000       1708.18457      -1.12142897    
   4.33012676       2.50000000      -4.00000000       1641.89807     -0.837410808    
   4.33012676       2.50000000      -3.00000000       1641.89807     -0.837410808    
   4.57987785       1.89704800      -3.00000000       1641.89807     -0.837410808    
   4.57987785       1.89704800      -4.00000000       1641.89807     -0.837410808    
   4.33012676       2.50000000      -3.00000000       1825.01135     -0.469398737    
   4.33012676       2.50000000      -2.00000000       1825.01135     -0.469398737    
   4.57987785       1.89704800      -2.00000000       1825.01135     -0.469398737    
   4.57987785       1.89704800      -3.00000000       1825.01135     -0.469398737    
   4.33012676       2.50000000      -2.00000000       2440.13843     -0.160257697    
   4.33012676       2.50000000      -1.00000000       2440.13843     -0.160257697    
   4.57987785       1.89704800      -1.00000000       2440.13843     -0.160257697    
   4.57987785       1.89704800      -2.00000000       2440.13843     -0.160257697    
   4.33012676       2.50000000      -1.00000000       3567.12061      -3.22906277E-03
   4.33012676       2.50000000       0.00000000       3567.12061      -3.22906277E-03
   4.57987785       1.89704800       0.00000000       3567.12061      -3.22906277E-03
   4.57987785       1.89704800      -1.00000000       3567.12061      -3.22906277E-03
   4.57987785       1.89704800      -10.0000000       1142.51440      -1.51162946    
   4.57987785       1.89704800      -9.00000000       1142.51440      -1.51162946    
   4.82962894       1.29409504      -9.00000000       1142.51440      -1.51162946    
   4.82962894       1.29409504      -10.0000000       1142.51440      -1.51162946    
   4.57987785       1.89704800      -9.00000000       1407.19043      -1.49294746    
   4.57987785       1.89704800      -8.00000000       1407.19043      -1.49294746    
   4.82962894       1.29409504      -8.00000000       1407.19043      -1.49294746    
   4.82962894       1.29409504      -9.00000000       1407.19043      -1.49294746    
   4.57987785       1.89704800      -8.00000000       1488.68726      -1.45892942    
   4.57987785       1.89704800      -7.00000000       1488.68726      -1.45892942    
   4.82962894       1.29409504      -7.00000000       1488.68726      -1.45892942    
   4.82962894       1.29409504      -8.00000000       1488.68726      -1.45892942    
   4.57987785       1.89704800      -7.00000000       1477.02698      -1.40160751    
   4.57987785       1.89704800      -6.00000000       1477.02698      -1.40160751    
   4.82962894       1.29409504      -6.00000000       1477.02698      -1.40160751    
   4.82962894       1.29409504      -7.00000000       1477.02698      -1.40160751    
   4.57987785       1.89704800      -6.00000000       1404.10156      -1.30449736    
   4.57987785       1.89704800      -5.00000000       1404.10156      -1.30449736    
   4.82962894       1.29409504      -5.00000000       1404.10156      -1.30449736    
   4.82962894       1.29409504      -6.00000000       1404.10156      -1.30449736    
   4.57987785       1.89704800      -5.00000000       1304.38525      -1.13775146    
   4.57987785       1.89704800      -4.00000000       1304.38525      -1.13775146    
   4.82962894       1.29409504      -4.00000000       1304.38525      -1.13775146    
   4.82962894       1.29409504      -5.00000000       1304.38525      -1.13775146    
   4.57987785       1.89704800      -4.00000000       1248.17969     -0.863778293    
   4.57987785       1.89704800      -3.00000000       1248.17969     -0.863778293    
   4.82962894       1.29409504      -3.00000000       1248.17969     -0.863778293    
   4.82962894       1.29409504      -4.00000000       1248.17969     -0.863778293    
   4.57987785       1.89704800      -3.00000000       1369.35046     -0.501606107    
   4.57987785       1.89704800      -2.00000000       1369.35046     -0.501606107    
   4.82962894       1.29409504      -2.00000000       1369.35046     -0.501606107    
   4.82962894       1.29409504      -3.00000000       1369.35046     -0.501606107    
   4.57987785       1.89704800      -2.00000000       1808.67188     -0.187481508    
   4.57987785       1.89704800      -1.00000000       1808.67188     -0.187481508    
   4.82962894       1.29409504      -1.00000000       1808.67188     -0.187481508    
   4.82962894       1.29409504      -2.00000000       1808.67188     -0.187481508    
   4.57987785       1.89704800      -1.00000000       2631.47534      -2.23858319E-02
   4.57987785       1.89704800       0.00000000       2631.47534      -2.23858319E-02
   4.82962894       1.29409504       0.00000000       2631.47534      -2.23858319E-02
   4.82962894       1.29409504      -1.00000000       2631.47534      -2.23858319E-02
   3.53553391       3.53553391      -10.0000000       2238.63501      -1.50952899    
   3.53553391       3.53553391      -9.00000000       2238.63501      -1.50952899    
   3.93283010       3.01776695      -9.00000000       2238.63501      -1.50952899    
   3.93283010       3.01776695      -10.0000000       2238.63501      -1.50952899    
   3.53553391       3.53553391      -9.00000000       2771.16846      -1.49067831    
   3.53553391       3.53553391      -8.00000000       2771.16846      -1.49067831    
   3.93283010       3.01776695      -8.00000000       2771.16846      -1.49067831    
   3.93283010       3.01776695      -9.00000000       2771.16846      -1.49067831    
   3.53553391       3.53553391      -8.00000000       2936.33643      -1.45585430    
   3.53553391       3.53553391      -7.00000000       2936.33643      -1.45585430    
   3.93283010       3.01776695      -7.00000000       2936.33643      -1.45585430    
   3.93283010       3.01776695      -8.00000000       2936.33643      -1.45585430    
   3.53553391       3.53553391      -7.00000000       2913.14917      -1.39692450    
   3.53553391       3.53553391      -6.00000000       2913.14917      -1.39692450    
   3.93283010       3.01776695      -6.00000000       2913.14917      -1.39692450    
   3.93283010       3.01776695      -7.00000000       2913.14917      -1.39692450    
   3.53553391       3.53553391      -6.00000000       2767.01538      -1.29678321    
   3.53553391       3.53553391      -5.00000000       2767.01538      -1.29678321    
   3.93283010       3.01776695      -5.00000000       2767.01538      -1.29678321    
   3.93283010       3.01776695      -6.00000000       2767.01538      -1.29678321    
   3.53553391       3.53553391      -5.00000000       2569.47485      -1.12446129    
   3.53553391       3.53553391      -4.00000000       2569.47485      -1.12446129    
   3.93283010       3.01776695      -4.00000000       2569.47485      -1.12446129    
   3.93283010       3.01776695      -5.00000000       2569.47485      -1.12446129    
   3.53553391       3.53553391      -4.00000000       2467.64136     -0.842292130    
   3.53553391       3.53553391      -3.00000000       2467.64136     -0.842292130    
   3.93283010       3.01776695      -3.00000000       2467.64136     -0.842292130    
   3.93283010       3.01776695      -4.00000000       2467.64136     -0.842292130    
   3.53553391       3.53553391      -3.00000000       2736.17920     -0.475297332    
   3.53553391       3.53553391      -2.00000000       2736.17920     -0.475297332    
   3.93283010       3.01776695      -2.00000000       2736.17920     -0.475297332    
   3.93283010       3.01776695      -3.00000000       2736.17920     -0.475297332    
   3.53553391       3.53553391      -2.00000000       3650.36377     -0.165194228    
   3.53553391       3.53553391      -1.00000000       3650.36377     -0.165194228    
   3.93283010       3.01776695      -1.00000000       3650.36377     -0.165194228    
   3.93283010       3.01776695      -2.00000000       3650.36377     -0.165194228    
   3.53553391       3.53553391      -1.00000000       5331.85547      -6.68894127E-03
   3.53553391       3.53553391       0.00000000       5331.85547      -6.68894127E-03
   3.93283010       3.01776695       0.00000000       5331.85547      -6.68894127E-03
   3.93283010       3.01776695      -1.00000000       5331.85547      -6.68894127E-03
   3.93283010       3.01776695      -10.0000000       1943.34363      -1.51090634    
   3.93283010       3.01776695      -9.00000000       1943.34363      -1.51090634    
   4.33012676       2.50000000      -9.00000000       1943.34363      -1.51090634    
   4.33012676       2.50000000      -10.0000000       1943.34363      -1.51090634    
   3.93283010       3.01776695      -9.00000000       2397.70386      -1.49216378    
   3.93283010       3.01776695      -8.00000000       2397.70386      -1.49216378    
   4.33012676       2.50000000      -8.00000000       2397.70386      -1.49216378    
   4.33012676       2.50000000      -9.00000000       2397.70386      -1.49216378    
   3.93283010       3.01776695      -8.00000000       2537.96167      -1.45786619    
   3.93283010       3.01776695      -7.00000000       2537.96167      -1.45786619    
   4.33012676       2.50000000      -7.00000000       2537.96167      -1.45786619    
   4.33012676       2.50000000      -8.00000000       2537.96167      -1.45786619    
   3.93283010       3.01776695      -7.00000000       2518.02441      -1.39998841    
   3.93283010       3.01776695      -6.00000000       2518.02441      -1.39998841    
   4.33012676       2.50000000      -6.00000000       2518.02441      -1.39998841    
   4.33012676       2.50000000      -7.00000000       2518.02441      -1.39998841    
   3.93283010       3.01776695      -6.00000000       2393.00366      -1.30183184    
   3.93283010       3.01776695      -5.00000000       2393.00366      -1.30183184    
   4.33012676       2.50000000      -5.00000000       2393.00366      -1.30183184    
   4.33012676       2.50000000      -6.00000000       2393.00366      -1.30183184    
   3.93283010       3.01776695      -5.00000000       2222.71704      -1.13316011    
   3.93283010       3.01776695      -4.00000000       2222.71704      -1.13316011    
   4.33012676       2.50000000      -4.00000000       2222.71704      -1.13316011    
   4.33012676       2.50000000      -5.00000000       2222.71704      -1.13316011    
   3.93283010       3.01776695      -4.00000000       2129.52808     -0.856338084    
   3.93283010       3.01776695      -3.00000000       2129.52808     -0.856338084    
   4.33012676       2.50000000      -3.00000000       2129.52808     -0.856338084    
   4.33012676       2.50000000      -4.00000000       2129.52808     -0.856338084    
   3.93283010       3.01776695      -3.00000000       2344.85864     -0.492432147    
   3.93283010       3.01776695      -2.00000000       2344.85864     -0.492432147    
   4.33012676       2.50000000      -2.00000000       2344.85864     -0.492432147    
   4.33012676       2.50000000      -3.00000000       2344.85864     -0.492432147    
   3.93283010       3.01776695      -2.00000000       3108.07715     -0.179659262    
   3.93283010       3.01776695      -1.00000000       3108.07715     -0.179659262    
   4.33012676       2.50000000      -1.00000000       3108.07715     -0.179659262    
   4.33012676       2.50000000      -2.00000000       3108.07715     -0.179659262    
   3.93283010       3.01776695      -1.00000000       4528.37207      -1.68621689E-02
   3.93283010       3.01776695       0.00000000       4528.37207      -1.68621689E-02
   4.33012676       2.50000000       0.00000000       4528.37207      -1.68621689E-02
   4.33012676       2.50000000      -1.00000000       4528.37207      -1.68621689E-02
   2.50000000       4.33012676      -10.0000000       2838.32031      -1.50978172    
   2.50000000       4.33012676      -9.00000000       2838.32031      -1.50978172    
   3.01776695       3.93283010      -9.00000000       2838.32031      -1.50978172    
   3.01776695       3.93283010      -10.0000000       2838.32031      -1.50978172    
   2.50000000       4.33012676      -9.00000000       3511.38818      -1.49095011    
   2.50000000       4.33012676      -8.00000000       3511.38818      -1.49095011    
   3.01776695       3.93283010      -8.00000000       3511.38818      -1.49095011    
   3.01776695       3.93283010      -9.00000000       3511.38818      -1.49095011    
   2.50000000       4.33012676      -8.00000000       3719.96338      -1.45622218    
   2.50000000       4.33012676      -7.00000000       3719.96338      -1.45622218    
   3.01776695       3.93283010      -7.00000000       3719.96338      -1.45622218    
   3.01776695       3.93283010      -8.00000000       3719.96338      -1.45622218    
   2.50000000       4.33012676      -7.00000000       3690.61377      -1.39748466    
   2.50000000       4.33012676      -6.00000000       3690.61377      -1.39748466    
   3.01776695       3.93283010      -6.00000000       3690.61377      -1.39748466    
   3.01776695       3.93283010      -7.00000000       3690.61377      -1.39748466    
   2.50000000       4.33012676      -6.00000000       3505.82495      -1.29770684    
   2.50000000       4.33012676      -5.00000000       3505.82495      -1.29770684    
   3.01776695       3.93283010      -5.00000000       3505.82495      -1.29770684    
   3.01776695       3.93283010      -6.00000000       3505.82495      -1.29770684    
   2.50000000       4.33012676      -5.00000000       3255.67456      -1.12605274    
   2.50000000       4.33012676      -4.00000000       3255.67456      -1.12605274    
   3.01776695       3.93283010      -4.00000000       3255.67456      -1.12605274    
   3.01776695       3.93283010      -5.00000000       3255.67456      -1.12605274    
   2.50000000       4.33012676      -4.00000000       3125.25000     -0.844856977    
   2.50000000       4.33012676      -3.00000000       3125.25000     -0.844856977    
   3.01776695       3.93283010      -3.00000000       3125.25000     -0.844856977    
   3.01776695       3.93283010      -4.00000000       3125.25000     -0.844856977    
   2.50000000       4.33012676      -3.00000000       3460.92749     -0.478408128    
   2.50000000       4.33012676      -2.00000000       3460.92749     -0.478408128    
   3.01776695       3.93283010      -2.00000000       3460.92749     -0.478408128    
   3.01776695       3.93283010      -3.00000000       3460.92749     -0.478408128    
   2.50000000       4.33012676      -2.00000000       4611.86963     -0.167806461    
   2.50000000       4.33012676      -1.00000000       4611.86963     -0.167806461    
   3.01776695       3.93283010      -1.00000000       4611.86963     -0.167806461    
   3.01776695       3.93283010      -2.00000000       4611.86963     -0.167806461    
   2.50000000       4.33012676      -1.00000000       6733.26318      -8.52227118E-03
   2.50000000       4.33012676       0.00000000       6733.26318      -8.52227118E-03
   3.01776695       3.93283010       0.00000000       6733.26318      -8.52227118E-03
   3.01776695       3.93283010      -1.00000000       6733.26318      -8.52227118E-03
   3.01776695       3.93283010      -10.0000000       2611.73535      -1.51058996    
   3.01776695       3.93283010      -9.00000000       2611.73535      -1.51058996    
   3.53553391       3.53553391      -9.00000000       2611.73535      -1.51058996    
   3.53553391       3.53553391      -10.0000000       2611.73535      -1.51058996    
   3.01776695       3.93283010      -9.00000000       3224.81836      -1.49182165    
   3.01776695       3.93283010      -8.00000000       3224.81836      -1.49182165    
   3.53553391       3.53553391      -8.00000000       3224.81836      -1.49182165    
   3.53553391       3.53553391      -9.00000000       3224.81836      -1.49182165    
   3.01776695       3.93283010      -8.00000000       3414.28027      -1.45740247    
   3.01776695       3.93283010      -7.00000000       3414.28027      -1.45740247    
   3.53553391       3.53553391      -7.00000000       3414.28027      -1.45740247    
   3.53553391       3.53553391      -8.00000000       3414.28027      -1.45740247    
   3.01776695       3.93283010      -7.00000000       3387.42188      -1.39928234    
   3.01776695       3.93283010      -6.00000000       3387.42188      -1.39928234    
   3.53553391       3.53553391      -6.00000000       3387.42188      -1.39928234    
   3.53553391       3.53553391      -7.00000000       3387.42188      -1.39928234    
   3.01776695       3.93283010      -6.00000000       3218.83301      -1.30066919    
   3.01776695       3.93283010      -5.00000000       3218.83301      -1.30066919    
   3.53553391       3.53553391      -5.00000000       3218.83301      -1.30066919    
   3.53553391       3.53553391      -6.00000000       3218.83301      -1.30066919    
   3.01776695       3.93283010      -5.00000000       2989.59546      -1.13115704    
   3.01776695       3.93283010      -4.00000000       2989.59546      -1.13115704    
   3.53553391       3.53553391      -4.00000000       2989.59546      -1.13115704    
   3.53553391       3.53553391      -5.00000000       2989.59546      -1.13115704    
   3.01776695       3.93283010      -4.00000000       2865.80225     -0.853097975    
   3.01776695       3.93283010      -3.00000000       2865.80225     -0.853097975    
   3.53553391       3.53553391      -3.00000000       2865.80225     -0.853097975    
   3.53553391       3.53553391      -4.00000000       2865.80225     -0.853097975    
   3.01776695       3.93283010      -3.00000000       3160.64893     -0.488457769    
   3.01776695       3.93283010      -2.00000000       3160.64893     -0.488457769    
   3.53553391       3.53553391      -2.00000000       3160.64893     -0.488457769    
   3.53553391       3.53553391      -3.00000000       3160.64893     -0.488457769    
   3.01776695       3.93283010      -2.00000000       4195.75195     -0.176287070    
   3.01776695       3.93283010      -1.00000000       4195.75195     -0.176287070    
   3.53553391       3.53553391      -1.00000000       4195.75195     -0.176287070    
   3.53553391       3.53553391      -2.00000000       4195.75195     -0.176287070    
   3.01776695       3.93283010      -1.00000000       6116.72363      -1.44860316E-02
   3.01776695       3.93283010       0.00000000       6116.72363      -1.44860316E-02
   3.53553391       3.53553391       0.00000000       6116.72363      -1.44860316E-02
   3.53553391       3.53553391      -1.00000000       6116.72363      -1.44860316E-02
   1.29409504       4.82962894      -10.0000000       3244.57983      -1.50995600    
   1.29409504       4.82962894      -9.00000000       3244.57983      -1.50995600    
   1.89704800       4.57987785      -9.00000000       3244.57983      -1.50995600    
   1.89704800       4.57987785      -10.0000000       3244.57983      -1.50995600    
   1.29409504       4.82962894      -9.00000000       4012.31006      -1.49113786    
   1.29409504       4.82962894      -8.00000000       4012.31006      -1.49113786    
   1.89704800       4.57987785      -8.00000000       4012.31006      -1.49113786    
   1.89704800       4.57987785      -9.00000000       4012.31006      -1.49113786    
   1.29409504       4.82962894      -8.00000000       4250.08301      -1.45647633    
   1.29409504       4.82962894      -7.00000000       4250.08301      -1.45647633    
   1.89704800       4.57987785      -7.00000000       4250.08301      -1.45647633    
   1.89704800       4.57987785      -8.00000000       4250.08301      -1.45647633    
   1.29409504       4.82962894      -7.00000000       4216.57178      -1.39787161    
   1.29409504       4.82962894      -6.00000000       4216.57178      -1.39787161    
   1.89704800       4.57987785      -6.00000000       4216.57178      -1.39787161    
   1.89704800       4.57987785      -7.00000000       4216.57178      -1.39787161    
   1.29409504       4.82962894      -6.00000000       4005.71436      -1.29834437    
   1.29409504       4.82962894      -5.00000000       4005.71436      -1.29834437    
   1.89704800       4.57987785      -5.00000000       4005.71436      -1.29834437    
   1.89704800       4.57987785      -6.00000000       4005.71436      -1.29834437    
   1.29409504       4.82962894      -5.00000000       3720.00635      -1.12715161    
   1.29409504       4.82962894      -4.00000000       3720.00635      -1.12715161    
   1.89704800       4.57987785      -4.00000000       3720.00635      -1.12715161    
   1.89704800       4.57987785      -5.00000000       3720.00635      -1.12715161    
   1.29409504       4.82962894      -4.00000000       3569.89087     -0.846628904    
   1.29409504       4.82962894      -3.00000000       3569.89087     -0.846628904    
   1.89704800       4.57987785      -3.00000000       3569.89087     -0.846628904    