 VARIABLES="X" "Y" "Z" "abs(p) (Pa)" "angle(p) (rad)"
ZONE N=   1080,E =     600, F=FEPOINT, ET=QUADRILATERAL
   4.82962894       1.29409504      -10.0000000       2914.94263      -1.42447186    
   4.82962894       1.29409504      -9.00000000       2914.94263      -1.42447186    
   4.91481400      0.647047520      -9.00000000       2914.94263      -1.42447186    
   4.91481400      0.647047520      -10.0000000       2914.94263      -1.42447186    
   4.82962894       1.29409504      -9.00000000       3633.50903      -1.39347947    
   4.82962894       1.29409504      -8.00000000       3633.50903      -1.39347947    
   4.91481400      0.647047520      -8.00000000       3633.50903      -1.39347947    
   4.91481400      0.647047520      -9.00000000       3633.50903      -1.39347947    
   4.82962894       1.29409504      -8.00000000       3891.49097      -1.33526838    
   4.82962894       1.29409504      -7.00000000       3891.49097      -1.33526838    
   4.91481400      0.647047520      -7.00000000       3891.49097      -1.33526838    
   4.91481400      0.647047520      -8.00000000       3891.49097      -1.33526838    
   4.82962894       1.29409504      -7.00000000       3950.50562      -1.24461496    
   4.82962894       1.29409504      -6.00000000       3950.50562      -1.24461496    
   4.91481400      0.647047520      -6.00000000       3950.50562      -1.24461496    
   4.91481400      0.647047520      -7.00000000       3950.50562      -1.24461496    
   4.82962894       1.29409504      -6.00000000       3933.09668      -1.10905004    
   4.82962894       1.29409504      -5.00000000       3933.09668      -1.10905004    
   4.91481400      0.647047520      -5.00000000       3933.09668      -1.10905004    
   4.91481400      0.647047520      -6.00000000       3933.09668      -1.10905004    
   4.82962894       1.29409504      -5.00000000       3975.69214     -0.917761445    
   4.82962894       1.29409504      -4.00000000       3975.69214     -0.917761445    
   4.91481400      0.647047520      -4.00000000       3975.69214     -0.917761445    
   4.91481400      0.647047520      -5.00000000       3975.69214     -0.917761445    
   4.82962894       1.29409504      -4.00000000       4274.25830     -0.679206192    
   4.82962894       1.29409504      -3.00000000       4274.25830     -0.679206192    
   4.91481400      0.647047520      -3.00000000       4274.25830     -0.679206192    
   4.91481400      0.647047520      -4.00000000       4274.25830     -0.679206192    
   4.82962894       1.29409504      -3.00000000       5055.19238     -0.439181894    
   4.82962894       1.29409504      -2.00000000       5055.19238     -0.439181894    
   4.91481400      0.647047520      -2.00000000       5055.19238     -0.439181894    
   4.91481400      0.647047520      -3.00000000       5055.19238     -0.439181894    
   4.82962894       1.29409504      -2.00000000       6498.97412     -0.254583240    
   4.82962894       1.29409504      -1.00000000       6498.97412     -0.254583240    
   4.91481400      0.647047520      -1.00000000       6498.97412     -0.254583240    
   4.91481400      0.647047520      -2.00000000       6498.97412     -0.254583240    
   4.82962894       1.29409504      -1.00000000       8746.27637     -0.154449925    
   4.82962894       1.29409504       0.00000000       8746.27637     -0.154449925    
   4.91481400      0.647047520       0.00000000       8746.27637     -0.154449925    
   4.91481400      0.647047520      -1.00000000       8746.27637     -0.154449925    
   4.91481400      0.647047520      -10.0000000       2956.58569      -1.42412305    
   4.91481400      0.647047520      -9.00000000       2956.58569      -1.42412305    
   5.00000000       0.00000000      -9.00000000       2956.58569      -1.42412305    
   5.00000000       0.00000000      -10.0000000       2956.58569      -1.42412305    
   4.91481400      0.647047520      -9.00000000       3686.77734      -1.39313328    
   4.91481400      0.647047520      -8.00000000       3686.77734      -1.39313328    
   5.00000000       0.00000000      -8.00000000       3686.77734      -1.39313328    
   5.00000000       0.00000000      -9.00000000       3686.77734      -1.39313328    
   4.91481400      0.647047520      -8.00000000       3949.10791      -1.33484030    
   4.91481400      0.647047520      -7.00000000       3949.10791      -1.33484030    
   5.00000000       0.00000000      -7.00000000       3949.10791      -1.33484030    
   5.00000000       0.00000000      -8.00000000       3949.10791      -1.33484030    
   4.91481400      0.647047520      -7.00000000       4009.26196      -1.24403465    
   4.91481400      0.647047520      -6.00000000       4009.26196      -1.24403465    
   5.00000000       0.00000000      -6.00000000       4009.26196      -1.24403465    
   5.00000000       0.00000000      -7.00000000       4009.26196      -1.24403465    
   4.91481400      0.647047520      -6.00000000       3991.93652      -1.10823894    
   4.91481400      0.647047520      -5.00000000       3991.93652      -1.10823894    
   5.00000000       0.00000000      -5.00000000       3991.93652      -1.10823894    
   5.00000000       0.00000000      -6.00000000       3991.93652      -1.10823894    
   4.91481400      0.647047520      -5.00000000       4035.95752     -0.916665435    
   4.91481400      0.647047520      -4.00000000       4035.95752     -0.916665435    
   5.00000000       0.00000000      -4.00000000       4035.95752     -0.916665435    
   5.00000000       0.00000000      -5.00000000       4035.95752     -0.916665435    
   4.91481400      0.647047520      -4.00000000       4340.67432     -0.677897215    
   4.91481400      0.647047520      -3.00000000       4340.67432     -0.677897215    
   5.00000000       0.00000000      -3.00000000       4340.67432     -0.677897215    
   5.00000000       0.00000000      -4.00000000       4340.67432     -0.677897215    
   4.91481400      0.647047520      -3.00000000       5136.05664     -0.437890172    
   4.91481400      0.647047520      -2.00000000       5136.05664     -0.437890172    
   5.00000000       0.00000000      -2.00000000       5136.05664     -0.437890172    
   5.00000000       0.00000000      -3.00000000       5136.05664     -0.437890172    
   4.91481400      0.647047520      -2.00000000       6605.08643     -0.253502607    
   4.91481400      0.647047520      -1.00000000       6605.08643     -0.253502607    
   5.00000000       0.00000000      -1.00000000       6605.08643     -0.253502607    
   5.00000000       0.00000000      -2.00000000       6605.08643     -0.253502607    
   4.91481400      0.647047520      -1.00000000       8890.51855     -0.153625011    
   4.91481400      0.647047520       0.00000000       8890.51855     -0.153625011    
   5.00000000       0.00000000       0.00000000       8890.51855     -0.153625011    
   5.00000000       0.00000000      -1.00000000       8890.51855     -0.153625011    
   4.33012676       2.50000000      -10.0000000       2674.65186      -1.42485762    
   4.33012676       2.50000000      -9.00000000       2674.65186      -1.42485762    
   4.57987785       1.89704800      -9.00000000       2674.65186      -1.42485762    
   4.57987785       1.89704800      -10.0000000       2674.65186      -1.42485762    
   4.33012676       2.50000000      -9.00000000       3332.62671      -1.39386272    
   4.33012676       2.50000000      -8.00000000       3332.62671      -1.39386272    
   4.57987785       1.89704800      -8.00000000       3332.62671      -1.39386272    
   4.57987785       1.89704800      -9.00000000       3332.62671      -1.39386272    
   4.33012676       2.50000000      -8.00000000       3568.68262      -1.33574247    
   4.33012676       2.50000000      -7.00000000       3568.68262      -1.33574247    
   4.57987785       1.89704800      -7.00000000       3568.68262      -1.33574247    
   4.57987785       1.89704800      -8.00000000       3568.68262      -1.33574247    
   4.33012676       2.50000000      -7.00000000       3622.53174      -1.24525738    
   4.33012676       2.50000000      -6.00000000       3622.53174      -1.24525738    
   4.57987785       1.89704800      -6.00000000       3622.53174      -1.24525738    
   4.57987785       1.89704800      -7.00000000       3622.53174      -1.24525738    
   4.33012676       2.50000000      -6.00000000       3606.22974      -1.10994780    
   4.33012676       2.50000000      -5.00000000       3606.22974      -1.10994780    
   4.57987785       1.89704800      -5.00000000       3606.22974      -1.10994780    
   4.57987785       1.89704800      -6.00000000       3606.22974      -1.10994780    
   4.33012676       2.50000000      -5.00000000       3644.49756     -0.918976963    
   4.33012676       2.50000000      -4.00000000       3644.49756     -0.918976963    
   4.57987785       1.89704800      -4.00000000       3644.49756     -0.918976963    
   4.57987785       1.89704800      -5.00000000       3644.49756     -0.918976963    
   4.33012676       2.50000000      -4.00000000       3916.56470     -0.680656433    
   4.33012676       2.50000000      -3.00000000       3916.56470     -0.680656433    
   4.57987785       1.89704800      -3.00000000       3916.56470     -0.680656433    
   4.57987785       1.89704800      -4.00000000       3916.56470     -0.680656433    
   4.33012676       2.50000000      -3.00000000       4629.83398     -0.440615147    
   4.33012676       2.50000000      -2.00000000       4629.83398     -0.440615147    
   4.57987785       1.89704800      -2.00000000       4629.83398     -0.440615147    
   4.57987785       1.89704800      -3.00000000       4629.83398     -0.440615147    
   4.33012676       2.50000000      -2.00000000       5949.98340     -0.255783111    
   4.33012676       2.50000000      -1.00000000       5949.98340     -0.255783111    
   4.57987785       1.89704800      -1.00000000       5949.98340     -0.255783111    
   4.57987785       1.89704800      -2.00000000       5949.98340     -0.255783111    
   4.33012676       2.50000000      -1.00000000       8005.99707     -0.155366257    
   4.33012676       2.50000000       0.00000000       8005.99707     -0.155366257    
   4.57987785       1.89704800       0.00000000       8005.99707     -0.155366257    
   4.57987785       1.89704800      -1.00000000       8005.99707     -0.155366257    
   4.57987785       1.89704800      -10.0000000       2796.74146      -1.42375946    
   4.57987785       1.89704800      -9.00000000       2796.74146      -1.42375946    
   4.82962894       1.29409504      -9.00000000       2796.74146      -1.42375946    
   4.82962894       1.29409504      -10.0000000       2796.74146      -1.42375946    
   4.57987785       1.89704800      -9.00000000       3488.79639      -1.39277256    
   4.57987785       1.89704800      -8.00000000       3488.79639      -1.39277256    
   4.82962894       1.29409504      -8.00000000       3488.79639      -1.39277256    
   4.82962894       1.29409504      -9.00000000       3488.79639      -1.39277256    
   4.57987785       1.89704800      -8.00000000       3737.59766      -1.33439434    
   4.57987785       1.89704800      -7.00000000       3737.59766      -1.33439434    
   4.82962894       1.29409504      -7.00000000       3737.59766      -1.33439434    
   4.82962894       1.29409504      -8.00000000       3737.59766      -1.33439434    
   4.57987785       1.89704800      -7.00000000       3794.79736      -1.24343073    
   4.57987785       1.89704800      -6.00000000       3794.79736      -1.24343073    
   4.82962894       1.29409504      -6.00000000       3794.79736      -1.24343073    
   4.82962894       1.29409504      -7.00000000       3794.79736      -1.24343073    
   4.57987785       1.89704800      -6.00000000       3778.73438      -1.10739493    
   4.57987785       1.89704800      -5.00000000       3778.73438      -1.10739493    
   4.82962894       1.29409504      -5.00000000       3778.73438      -1.10739493    
   4.82962894       1.29409504      -6.00000000       3778.73438      -1.10739493    
   4.57987785       1.89704800      -5.00000000       3821.18335     -0.915524125    
   4.57987785       1.89704800      -4.00000000       3821.18335     -0.915524125    
   4.82962894       1.29409504      -4.00000000       3821.18335     -0.915524125    
   4.82962894       1.29409504      -5.00000000       3821.18335     -0.915524125    
   4.57987785       1.89704800      -4.00000000       4111.28906     -0.676536560    
   4.57987785       1.89704800      -3.00000000       4111.28906     -0.676536560    
   4.82962894       1.29409504      -3.00000000       4111.28906     -0.676536560    
   4.82962894       1.29409504      -4.00000000       4111.28906     -0.676536560    
   4.57987785       1.89704800      -3.00000000       4866.91895     -0.436549038    
   4.57987785       1.89704800      -2.00000000       4866.91895     -0.436549038    
   4.82962894       1.29409504      -2.00000000       4866.91895     -0.436549038    
   4.82962894       1.29409504      -3.00000000       4866.91895     -0.436549038    
   4.57987785       1.89704800      -2.00000000       6261.07520     -0.252381265    
   4.57987785       1.89704800      -1.00000000       6261.07520     -0.252381265    
   4.82962894       1.29409504      -1.00000000       6261.07520     -0.252381265    
   4.82962894       1.29409504      -2.00000000       6261.07520     -0.252381265    
   4.57987785       1.89704800      -1.00000000       8428.88770     -0.152769193    
   4.57987785       1.89704800       0.00000000       8428.88770     -0.152769193    
   4.82962894       1.29409504       0.00000000       8428.88770     -0.152769193    
   4.82962894       1.29409504      -1.00000000       8428.88770     -0.152769193    
   3.53553391       3.53553391      -10.0000000       2252.09277      -1.42535686    
   3.53553391       3.53553391      -9.00000000       2252.09277      -1.42535686    
   3.93283010       3.01776695      -9.00000000       2252.09277      -1.42535686    
   3.93283010       3.01776695      -10.0000000       2252.09277      -1.42535686    
   3.53553391       3.53553391      -9.00000000       2804.63159      -1.39435911    
   3.53553391       3.53553391      -8.00000000       2804.63159      -1.39435911    
   3.93283010       3.01776695      -8.00000000       2804.63159      -1.39435911    
   3.93283010       3.01776695      -9.00000000       2804.63159      -1.39435911    
   3.53553391       3.53553391      -8.00000000       3002.67065      -1.33635664    
   3.53553391       3.53553391      -7.00000000       3002.67065      -1.33635664    
   3.93283010       3.01776695      -7.00000000       3002.67065      -1.33635664    
   3.93283010       3.01776695      -8.00000000       3002.67065      -1.33635664    
   3.53553391       3.53553391      -7.00000000       3047.68848      -1.24608982    
   3.53553391       3.53553391      -6.00000000       3047.68848      -1.24608982    
   3.93283010       3.01776695      -6.00000000       3047.68848      -1.24608982    
   3.93283010       3.01776695      -7.00000000       3047.68848      -1.24608982    
   3.53553391       3.53553391      -6.00000000       3033.60498      -1.11111152    
   3.53553391       3.53553391      -5.00000000       3033.60498      -1.11111152    
   3.93283010       3.01776695      -5.00000000       3033.60498      -1.11111152    
   3.93283010       3.01776695      -6.00000000       3033.60498      -1.11111152    
   3.53553391       3.53553391      -5.00000000       3064.94043     -0.920551956    
   3.53553391       3.53553391      -4.00000000       3064.94043     -0.920551956    
   3.93283010       3.01776695      -4.00000000       3064.94043     -0.920551956    
   3.93283010       3.01776695      -5.00000000       3064.94043     -0.920551956    
   3.53553391       3.53553391      -4.00000000       3291.97559     -0.682540596    
   3.53553391       3.53553391      -3.00000000       3291.97559     -0.682540596    
   3.93283010       3.01776695      -3.00000000       3291.97559     -0.682540596    
   3.93283010       3.01776695      -4.00000000       3291.97559     -0.682540596    
   3.53553391       3.53553391      -3.00000000       3888.97314     -0.442478150    
   3.53553391       3.53553391      -2.00000000       3888.97314     -0.442478150    
   3.93283010       3.01776695      -2.00000000       3888.97314     -0.442478150    
   3.93283010       3.01776695      -3.00000000       3888.97314     -0.442478150    
   3.53553391       3.53553391      -2.00000000       4995.52002     -0.257343501    
   3.53553391       3.53553391      -1.00000000       4995.52002     -0.257343501    
   3.93283010       3.01776695      -1.00000000       4995.52002     -0.257343501    
   3.93283010       3.01776695      -2.00000000       4995.52002     -0.257343501    
   3.53553391       3.53553391      -1.00000000       6720.13867     -0.156558692    
   3.53553391       3.53553391       0.00000000       6720.13867     -0.156558692    
   3.93283010       3.01776695       0.00000000       6720.13867     -0.156558692    
   3.93283010       3.01776695      -1.00000000       6720.13867     -0.156558692    
   3.93283010       3.01776695      -10.0000000       2446.30371      -1.42332006    
   3.93283010       3.01776695      -9.00000000       2446.30371      -1.42332006    
   4.33012676       2.50000000      -9.00000000       2446.30371      -1.42332006    
   4.33012676       2.50000000      -10.0000000       2446.30371      -1.42332006    
   3.93283010       3.01776695      -9.00000000       3053.05835      -1.39233696    
   3.93283010       3.01776695      -8.00000000       3053.05835      -1.39233696    
   4.33012676       2.50000000      -8.00000000       3053.05835      -1.39233696    
   4.33012676       2.50000000      -9.00000000       3053.05835      -1.39233696    
   3.93283010       3.01776695      -8.00000000       3271.37817      -1.33385623    
   3.93283010       3.01776695      -7.00000000       3271.37817      -1.33385623    
   4.33012676       2.50000000      -7.00000000       3271.37817      -1.33385623    
   4.33012676       2.50000000      -8.00000000       3271.37817      -1.33385623    
   3.93283010       3.01776695      -7.00000000       3321.72412      -1.24270189    
   3.93283010       3.01776695      -6.00000000       3321.72412      -1.24270189    
   4.33012676       2.50000000      -6.00000000       3321.72412      -1.24270189    
   4.33012676       2.50000000      -7.00000000       3321.72412      -1.24270189    
   3.93283010       3.01776695      -6.00000000       3308.02051      -1.10637653    
   3.93283010       3.01776695      -5.00000000       3308.02051      -1.10637653    
   4.33012676       2.50000000      -5.00000000       3308.02051      -1.10637653    
   4.33012676       2.50000000      -6.00000000       3308.02051      -1.10637653    
   3.93283010       3.01776695      -5.00000000       3346.00854     -0.914147913    
   3.93283010       3.01776695      -4.00000000       3346.00854     -0.914147913    
   4.33012676       2.50000000      -4.00000000       3346.00854     -0.914147913    
   4.33012676       2.50000000      -5.00000000       3346.00854     -0.914147913    
   3.93283010       3.01776695      -4.00000000       3601.73755     -0.674897015    
   3.93283010       3.01776695      -3.00000000       3601.73755     -0.674897015    
   4.33012676       2.50000000      -3.00000000       3601.73755     -0.674897015    
   4.33012676       2.50000000      -4.00000000       3601.73755     -0.674897015    
   3.93283010       3.01776695      -3.00000000       4266.11572     -0.434933394    
   3.93283010       3.01776695      -2.00000000       4266.11572     -0.434933394    
   4.33012676       2.50000000      -2.00000000       4266.11572     -0.434933394    
   4.33012676       2.50000000      -3.00000000       4266.11572     -0.434933394    
   3.93283010       3.01776695      -2.00000000       5490.39307     -0.251031548    
   3.93283010       3.01776695      -1.00000000       5490.39307     -0.251031548    
   4.33012676       2.50000000      -1.00000000       5490.39307     -0.251031548    
   4.33012676       2.50000000      -2.00000000       5490.39307     -0.251031548    
   3.93283010       3.01776695      -1.00000000       7392.85693     -0.151739702    
   3.93283010       3.01776695       0.00000000       7392.85693     -0.151739702    
   4.33012676       2.50000000       0.00000000       7392.85693     -0.151739702    
   4.33012676       2.50000000      -1.00000000       7392.85693     -0.151739702    
   2.50000000       4.33012676      -10.0000000       1676.05322      -1.42615330    
   2.50000000       4.33012676      -9.00000000       1676.05322      -1.42615330    
   3.01776695       3.93283010      -9.00000000       1676.05322      -1.42615330    
   3.01776695       3.93283010      -10.0000000       1676.05322      -1.42615330    
   2.50000000       4.33012676      -9.00000000       2085.50732      -1.39515233    
   2.50000000       4.33012676      -8.00000000       2085.50732      -1.39515233    
   3.01776695       3.93283010      -8.00000000       2085.50732      -1.39515233    
   3.01776695       3.93283010      -9.00000000       2085.50732      -1.39515233    
   2.50000000       4.33012676      -8.00000000       2232.03394      -1.33733869    
   2.50000000       4.33012676      -7.00000000       2232.03394      -1.33733869    
   3.01776695       3.93283010      -7.00000000       2232.03394      -1.33733869    
   3.01776695       3.93283010      -8.00000000       2232.03394      -1.33733869    
   2.50000000       4.33012676      -7.00000000       2265.15259      -1.24742115    
   2.50000000       4.33012676      -6.00000000       2265.15259      -1.24742115    
   3.01776695       3.93283010      -6.00000000       2265.15259      -1.24742115    
   3.01776695       3.93283010      -7.00000000       2265.15259      -1.24742115    
   2.50000000       4.33012676      -6.00000000       2254.25269      -1.11297381    
   2.50000000       4.33012676      -5.00000000       2254.25269      -1.11297381    
   3.01776695       3.93283010      -5.00000000       2254.25269      -1.11297381    
   3.01776695       3.93283010      -6.00000000       2254.25269      -1.11297381    
   2.50000000       4.33012676      -5.00000000       2276.52637     -0.923074782    
   2.50000000       4.33012676      -4.00000000       2276.52637     -0.923074782    
   3.01776695       3.93283010      -4.00000000       2276.52637     -0.923074782    
   3.01776695       3.93283010      -5.00000000       2276.52637     -0.923074782    
   2.50000000       4.33012676      -4.00000000       2443.05981     -0.685560286    
   2.50000000       4.33012676      -3.00000000       2443.05981     -0.685560286    
   3.01776695       3.93283010      -3.00000000       2443.05981     -0.685560286    
   3.01776695       3.93283010      -4.00000000       2443.05981     -0.685560286    
   2.50000000       4.33012676      -3.00000000       2883.10425     -0.445469409    
   2.50000000       4.33012676      -2.00000000       2883.10425     -0.445469409    
   3.01776695       3.93283010      -2.00000000       2883.10425     -0.445469409    
   3.01776695       3.93283010      -3.00000000       2883.10425     -0.445469409    
   2.50000000       4.33012676      -2.00000000       3700.63818     -0.259852618    
   2.50000000       4.33012676      -1.00000000       3700.63818     -0.259852618    
   3.01776695       3.93283010      -1.00000000       3700.63818     -0.259852618    
   3.01776695       3.93283010      -2.00000000       3700.63818     -0.259852618    
   2.50000000       4.33012676      -1.00000000       4976.31934     -0.158476949    
   2.50000000       4.33012676       0.00000000       4976.31934     -0.158476949    
   3.01776695       3.93283010       0.00000000       4976.31934     -0.158476949    
   3.01776695       3.93283010      -1.00000000       4976.31934     -0.158476949    
   3.01776695       3.93283010      -10.0000000       1929.15332      -1.42268264    
   3.01776695       3.93283010      -9.00000000       1929.15332      -1.42268264    
   3.53553391       3.53553391      -9.00000000       1929.15332      -1.42268264    
   3.53553391       3.53553391      -10.0000000       1929.15332      -1.42268264    
   3.01776695       3.93283010      -9.00000000       2409.26245      -1.39170611    
   3.01776695       3.93283010      -8.00000000       2409.26245      -1.39170611    
   3.53553391       3.53553391      -8.00000000       2409.26245      -1.39170611    
   3.53553391       3.53553391      -9.00000000       2409.26245      -1.39170611    
   3.01776695       3.93283010      -8.00000000       2582.21948      -1.33307695    
   3.01776695       3.93283010      -7.00000000       2582.21948      -1.33307695    
   3.53553391       3.53553391      -7.00000000       2582.21948      -1.33307695    
   3.53553391       3.53553391      -8.00000000       2582.21948      -1.33307695    
   3.01776695       3.93283010      -7.00000000       2622.28198      -1.24164665    
   3.01776695       3.93283010      -6.00000000       2622.28198      -1.24164665    
   3.53553391       3.53553391      -6.00000000       2622.28198      -1.24164665    
   3.53553391       3.53553391      -7.00000000       2622.28198      -1.24164665    
   3.01776695       3.93283010      -6.00000000       2611.87476      -1.10490298    
   3.01776695       3.93283010      -5.00000000       2611.87476      -1.10490298    
   3.53553391       3.53553391      -5.00000000       2611.87476      -1.10490298    
   3.53553391       3.53553391      -6.00000000       2611.87476      -1.10490298    
   3.01776695       3.93283010      -5.00000000       2642.81616     -0.912157714    
   3.01776695       3.93283010      -4.00000000       2642.81616     -0.912157714    
   3.53553391       3.53553391      -4.00000000       2642.81616     -0.912157714    
   3.53553391       3.53553391      -5.00000000       2642.81616     -0.912157714    
   3.01776695       3.93283010      -4.00000000       2846.74390     -0.672528625    
   3.01776695       3.93283010      -3.00000000       2846.74390     -0.672528625    
   3.53553391       3.53553391      -3.00000000       2846.74390     -0.672528625    
   3.53553391       3.53553391      -4.00000000       2846.74390     -0.672528625    
   3.01776695       3.93283010      -3.00000000       3374.59790     -0.432603508    
   3.01776695       3.93283010      -2.00000000       3374.59790     -0.432603508    
   3.53553391       3.53553391      -2.00000000       3374.59790     -0.432603508    
   3.53553391       3.53553391      -3.00000000       3374.59790     -0.432603508    
   3.01776695       3.93283010      -2.00000000       4345.56055     -0.249087274    
   3.01776695       3.93283010      -1.00000000       4345.56055     -0.249087274    
   3.53553391       3.53553391      -1.00000000       4345.56055     -0.249087274    
   3.53553391       3.53553391      -2.00000000       4345.56055     -0.249087274    
   3.01776695       3.93283010      -1.00000000       5853.01465     -0.150257438    
   3.01776695       3.93283010       0.00000000       5853.01465     -0.150257438    
   3.53553391       3.53553391       0.00000000       5853.01465     -0.150257438    
   3.53553391       3.53553391      -1.00000000       5853.01465     -0.150257438    
   1.29409504       4.82962894      -10.0000000       985.797485      -1.42797315    
   1.29409504       4.82962894      -9.00000000       985.797485      -1.42797315    
   1.89704800       4.57987785      -9.00000000       985.797485      -1.42797315    
   1.89704800       4.57987785      -10.0000000       985.797485      -1.42797315    
   1.29409504       4.82962894      -9.00000000       1224.25867      -1.39696944    
   1.29409504       4.82962894      -8.00000000       1224.25867      -1.39696944    
   1.89704800       4.57987785      -8.00000000       1224.25867      -1.39696944    
   1.89704800       4.57987785      -9.00000000       1224.25867      -1.39696944    
   1.29409504       4.82962894      -8.00000000       1309.29260      -1.33959067    
   1.29409504       4.82962894      -7.00000000       1309.29260      -1.33959067    
   1.89704800       4.57987785      -7.00000000       1309.29260      -1.33959067    
   1.89704800       4.57987785      -8.00000000       1309.29260      -1.33959067    
   1.29409504       4.82962894      -7.00000000       1328.26074      -1.25047576    
   1.29409504       4.82962894      -6.00000000       1328.26074      -1.25047576    
   1.89704800       4.57987785      -6.00000000       1328.26074      -1.25047576    
   1.89704800       4.57987785      -7.00000000       1328.26074      -1.25047576    
   1.29409504       4.82962894      -6.00000000       1321.29248      -1.11724865    
   1.29409504       4.82962894      -5.00000000       1321.29248      -1.11724865    
   1.89704800       4.57987785      -5.00000000       1321.29248      -1.11724865    
   1.89704800       4.57987785      -6.00000000       1321.29248      -1.11724865    
   1.29409504       4.82962894      -5.00000000       1333.00122     -0.928873420    
   1.29409504       4.82962894      -4.00000000       1333.00122     -0.928873420    
   1.89704800       4.57987785      -4.00000000       1333.00122     -0.928873420    
   1.89704800       4.57987785      -5.00000000       1333.00122     -0.928873420    
   1.29409504       4.82962894      -4.00000000       1427.70447     -0.692521989    
   1.29409504       4.82962894      -3.00000000       1427.70447     -0.692521989    
   1.89704800       4.57987785      -3.00000000       1427.70447     -0.692521989    