 VARIABLES="X" "Y" "Z" "abs(p) (Pa)" "angle(p) (rad)"
ZONE N=   1080,E =     600, F=FEPOINT, ET=QUADRILATERAL
   4.82962894       1.29409504      -10.0000000       355.692505      -1.51224065    
   4.82962894       1.29409504      -9.00000000       355.692505      -1.51224065    
   4.91481400      0.647047520      -9.00000000       355.692505      -1.51224065    
   4.91481400      0.647047520      -10.0000000       355.692505      -1.51224065    
   4.82962894       1.29409504      -9.00000000       447.883148      -1.51769745    
   4.82962894       1.29409504      -8.00000000       447.883148      -1.51769745    
   4.91481400      0.647047520      -8.00000000       447.883148      -1.51769745    
   4.91481400      0.647047520      -9.00000000       447.883148      -1.51769745    
   4.82962894       1.29409504      -8.00000000       503.268372      -1.51911175    
   4.82962894       1.29409504      -7.00000000       503.268372      -1.51911175    
   4.91481400      0.647047520      -7.00000000       503.268372      -1.51911175    
   4.91481400      0.647047520      -8.00000000       503.268372      -1.51911175    
   4.82962894       1.29409504      -7.00000000       543.508240      -1.51929796    
   4.82962894       1.29409504      -6.00000000       543.508240      -1.51929796    
   4.91481400      0.647047520      -6.00000000       543.508240      -1.51929796    
   4.91481400      0.647047520      -7.00000000       543.508240      -1.51929796    
   4.82962894       1.29409504      -6.00000000       575.397949      -1.51891696    
   4.82962894       1.29409504      -5.00000000       575.397949      -1.51891696    
   4.91481400      0.647047520      -5.00000000       575.397949      -1.51891696    
   4.91481400      0.647047520      -6.00000000       575.397949      -1.51891696    
   4.82962894       1.29409504      -5.00000000       602.464661      -1.51824486    
   4.82962894       1.29409504      -4.00000000       602.464661      -1.51824486    
   4.91481400      0.647047520      -4.00000000       602.464661      -1.51824486    
   4.91481400      0.647047520      -5.00000000       602.464661      -1.51824486    
   4.82962894       1.29409504      -4.00000000       626.900940      -1.51742852    
   4.82962894       1.29409504      -3.00000000       626.900940      -1.51742852    
   4.91481400      0.647047520      -3.00000000       626.900940      -1.51742852    
   4.91481400      0.647047520      -4.00000000       626.900940      -1.51742852    
   4.82962894       1.29409504      -3.00000000       650.193665      -1.51657128    
   4.82962894       1.29409504      -2.00000000       650.193665      -1.51657128    
   4.91481400      0.647047520      -2.00000000       650.193665      -1.51657128    
   4.91481400      0.647047520      -3.00000000       650.193665      -1.51657128    
   4.82962894       1.29409504      -2.00000000       674.014832      -1.51578975    
   4.82962894       1.29409504      -1.00000000       674.014832      -1.51578975    
   4.91481400      0.647047520      -1.00000000       674.014832      -1.51578975    
   4.91481400      0.647047520      -2.00000000       674.014832      -1.51578975    
   4.82962894       1.29409504      -1.00000000       700.508545      -1.51524019    
   4.82962894       1.29409504       0.00000000       700.508545      -1.51524019    
   4.91481400      0.647047520       0.00000000       700.508545      -1.51524019    
   4.91481400      0.647047520      -1.00000000       700.508545      -1.51524019    
   4.91481400      0.647047520      -10.0000000       139.732071      -1.51803148    
   4.91481400      0.647047520      -9.00000000       139.732071      -1.51803148    
   5.00000000       0.00000000      -9.00000000       139.732071      -1.51803148    
   5.00000000       0.00000000      -10.0000000       139.732071      -1.51803148    
   4.91481400      0.647047520      -9.00000000       173.376892      -1.52210450    
   4.91481400      0.647047520      -8.00000000       173.376892      -1.52210450    
   5.00000000       0.00000000      -8.00000000       173.376892      -1.52210450    
   5.00000000       0.00000000      -9.00000000       173.376892      -1.52210450    
   4.91481400      0.647047520      -8.00000000       193.119049      -1.52296114    
   4.91481400      0.647047520      -7.00000000       193.119049      -1.52296114    
   5.00000000       0.00000000      -7.00000000       193.119049      -1.52296114    
   5.00000000       0.00000000      -8.00000000       193.119049      -1.52296114    
   4.91481400      0.647047520      -7.00000000       207.465057      -1.52288592    
   4.91481400      0.647047520      -6.00000000       207.465057      -1.52288592    
   5.00000000       0.00000000      -6.00000000       207.465057      -1.52288592    
   5.00000000       0.00000000      -7.00000000       207.465057      -1.52288592    
   4.91481400      0.647047520      -6.00000000       218.803299      -1.52234924    
   4.91481400      0.647047520      -5.00000000       218.803299      -1.52234924    
   5.00000000       0.00000000      -5.00000000       218.803299      -1.52234924    
   5.00000000       0.00000000      -6.00000000       218.803299      -1.52234924    
   4.91481400      0.647047520      -5.00000000       228.443649      -1.52156985    
   4.91481400      0.647047520      -4.00000000       228.443649      -1.52156985    
   5.00000000       0.00000000      -4.00000000       228.443649      -1.52156985    
   5.00000000       0.00000000      -5.00000000       228.443649      -1.52156985    
   4.91481400      0.647047520      -4.00000000       237.144974      -1.52068245    
   4.91481400      0.647047520      -3.00000000       237.144974      -1.52068245    
   5.00000000       0.00000000      -3.00000000       237.144974      -1.52068245    
   5.00000000       0.00000000      -4.00000000       237.144974      -1.52068245    
   4.91481400      0.647047520      -3.00000000       245.423843      -1.51977134    
   4.91481400      0.647047520      -2.00000000       245.423843      -1.51977134    
   5.00000000       0.00000000      -2.00000000       245.423843      -1.51977134    
   5.00000000       0.00000000      -3.00000000       245.423843      -1.51977134    
   4.91481400      0.647047520      -2.00000000       253.890442      -1.51892734    
   4.91481400      0.647047520      -1.00000000       253.890442      -1.51892734    
   5.00000000       0.00000000      -1.00000000       253.890442      -1.51892734    
   5.00000000       0.00000000      -2.00000000       253.890442      -1.51892734    
   4.91481400      0.647047520      -1.00000000       263.161011      -1.51828706    
   4.91481400      0.647047520       0.00000000       263.161011      -1.51828706    
   5.00000000       0.00000000       0.00000000       263.161011      -1.51828706    
   5.00000000       0.00000000      -1.00000000       263.161011      -1.51828706    
   4.33012676       2.50000000      -10.0000000       826.876099      -1.51322460    
   4.33012676       2.50000000      -9.00000000       826.876099      -1.51322460    
   4.57987785       1.89704800      -9.00000000       826.876099      -1.51322460    
   4.57987785       1.89704800      -10.0000000       826.876099      -1.51322460    
   4.33012676       2.50000000      -9.00000000       1038.61853      -1.51843357    
   4.33012676       2.50000000      -8.00000000       1038.61853      -1.51843357    
   4.57987785       1.89704800      -8.00000000       1038.61853      -1.51843357    
   4.57987785       1.89704800      -9.00000000       1038.61853      -1.51843357    
   4.33012676       2.50000000      -8.00000000       1165.35803      -1.51974916    
   4.33012676       2.50000000      -7.00000000       1165.35803      -1.51974916    
   4.57987785       1.89704800      -7.00000000       1165.35803      -1.51974916    
   4.57987785       1.89704800      -8.00000000       1165.35803      -1.51974916    
   4.33012676       2.50000000      -7.00000000       1257.44238      -1.51988876    
   4.33012676       2.50000000      -6.00000000       1257.44238      -1.51988876    
   4.57987785       1.89704800      -6.00000000       1257.44238      -1.51988876    
   4.57987785       1.89704800      -7.00000000       1257.44238      -1.51988876    
   4.33012676       2.50000000      -6.00000000       1330.38757      -1.51948225    
   4.33012676       2.50000000      -5.00000000       1330.38757      -1.51948225    
   4.57987785       1.89704800      -5.00000000       1330.38757      -1.51948225    
   4.57987785       1.89704800      -6.00000000       1330.38757      -1.51948225    
   4.33012676       2.50000000      -5.00000000       1392.31396      -1.51878858    
   4.33012676       2.50000000      -4.00000000       1392.31396      -1.51878858    
   4.57987785       1.89704800      -4.00000000       1392.31396      -1.51878858    
   4.57987785       1.89704800      -5.00000000       1392.31396      -1.51878858    
   4.33012676       2.50000000      -4.00000000       1448.22278      -1.51795971    
   4.33012676       2.50000000      -3.00000000       1448.22278      -1.51795971    
   4.57987785       1.89704800      -3.00000000       1448.22278      -1.51795971    
   4.57987785       1.89704800      -4.00000000       1448.22278      -1.51795971    
   4.33012676       2.50000000      -3.00000000       1501.49988      -1.51709282    
   4.33012676       2.50000000      -2.00000000       1501.49988      -1.51709282    
   4.57987785       1.89704800      -2.00000000       1501.49988      -1.51709282    
   4.57987785       1.89704800      -3.00000000       1501.49988      -1.51709282    
   4.33012676       2.50000000      -2.00000000       1555.98901      -1.51630211    
   4.33012676       2.50000000      -1.00000000       1555.98901      -1.51630211    
   4.57987785       1.89704800      -1.00000000       1555.98901      -1.51630211    
   4.57987785       1.89704800      -2.00000000       1555.98901      -1.51630211    
   4.33012676       2.50000000      -1.00000000       1616.43884      -1.51573670    
   4.33012676       2.50000000       0.00000000       1616.43884      -1.51573670    
   4.57987785       1.89704800       0.00000000       1616.43884      -1.51573670    
   4.57987785       1.89704800      -1.00000000       1616.43884      -1.51573670    
   4.57987785       1.89704800      -10.0000000       625.629395      -1.51474154    
   4.57987785       1.89704800      -9.00000000       625.629395      -1.51474154    
   4.82962894       1.29409504      -9.00000000       625.629395      -1.51474154    
   4.82962894       1.29409504      -10.0000000       625.629395      -1.51474154    
   4.57987785       1.89704800      -9.00000000       782.816467      -1.51958418    
   4.57987785       1.89704800      -8.00000000       782.816467      -1.51958418    
   4.82962894       1.29409504      -8.00000000       782.816467      -1.51958418    
   4.82962894       1.29409504      -9.00000000       782.816467      -1.51958418    
   4.57987785       1.89704800      -8.00000000       876.345215      -1.52075422    
   4.57987785       1.89704800      -7.00000000       876.345215      -1.52075422    
   4.82962894       1.29409504      -7.00000000       876.345215      -1.52075422    
   4.82962894       1.29409504      -8.00000000       876.345215      -1.52075422    
   4.57987785       1.89704800      -7.00000000       944.302307      -1.52081835    
   4.57987785       1.89704800      -6.00000000       944.302307      -1.52081835    
   4.82962894       1.29409504      -6.00000000       944.302307      -1.52081835    
   4.82962894       1.29409504      -7.00000000       944.302307      -1.52081835    
   4.57987785       1.89704800      -6.00000000       998.093750      -1.52036619    
   4.57987785       1.89704800      -5.00000000       998.093750      -1.52036619    
   4.82962894       1.29409504      -5.00000000       998.093750      -1.52036619    
   4.82962894       1.29409504      -6.00000000       998.093750      -1.52036619    
   4.57987785       1.89704800      -5.00000000       1043.78223      -1.51964974    
   4.57987785       1.89704800      -4.00000000       1043.78223      -1.51964974    
   4.82962894       1.29409504      -4.00000000       1043.78223      -1.51964974    
   4.82962894       1.29409504      -5.00000000       1043.78223      -1.51964974    
   4.57987785       1.89704800      -4.00000000       1085.02905      -1.51880181    
   4.57987785       1.89704800      -3.00000000       1085.02905      -1.51880181    
   4.82962894       1.29409504      -3.00000000       1085.02905      -1.51880181    
   4.82962894       1.29409504      -4.00000000       1085.02905      -1.51880181    
   4.57987785       1.89704800      -3.00000000       1124.31201      -1.51792014    
   4.57987785       1.89704800      -2.00000000       1124.31201      -1.51792014    
   4.82962894       1.29409504      -2.00000000       1124.31201      -1.51792014    
   4.82962894       1.29409504      -3.00000000       1124.31201      -1.51792014    
   4.57987785       1.89704800      -2.00000000       1164.49707      -1.51710987    
   4.57987785       1.89704800      -1.00000000       1164.49707      -1.51710987    
   4.82962894       1.29409504      -1.00000000       1164.49707      -1.51710987    
   4.82962894       1.29409504      -2.00000000       1164.49707      -1.51710987    
   4.57987785       1.89704800      -1.00000000       1208.89258      -1.51652169    
   4.57987785       1.89704800       0.00000000       1208.89258      -1.51652169    
   4.82962894       1.29409504       0.00000000       1208.89258      -1.51652169    
   4.82962894       1.29409504      -1.00000000       1208.89258      -1.51652169    
   3.53553391       3.53553391      -10.0000000       1241.70715      -1.51350379    
   3.53553391       3.53553391      -9.00000000       1241.70715      -1.51350379    
   3.93283010       3.01776695      -9.00000000       1241.70715      -1.51350379    
   3.93283010       3.01776695      -10.0000000       1241.70715      -1.51350379    
   3.53553391       3.53553391      -9.00000000       1558.57214      -1.51864398    
   3.53553391       3.53553391      -8.00000000       1558.57214      -1.51864398    
   3.93283010       3.01776695      -8.00000000       1558.57214      -1.51864398    
   3.93283010       3.01776695      -9.00000000       1558.57214      -1.51864398    
   3.53553391       3.53553391      -8.00000000       1748.02979      -1.51993346    
   3.53553391       3.53553391      -7.00000000       1748.02979      -1.51993346    
   3.93283010       3.01776695      -7.00000000       1748.02979      -1.51993346    
   3.93283010       3.01776695      -8.00000000       1748.02979      -1.51993346    
   3.53553391       3.53553391      -7.00000000       1885.68359      -1.52006030    
   3.53553391       3.53553391      -6.00000000       1885.68359      -1.52006030    
   3.93283010       3.01776695      -6.00000000       1885.68359      -1.52006030    
   3.93283010       3.01776695      -7.00000000       1885.68359      -1.52006030    
   3.53553391       3.53553391      -6.00000000       1994.71729      -1.51964355    
   3.53553391       3.53553391      -5.00000000       1994.71729      -1.51964355    
   3.93283010       3.01776695      -5.00000000       1994.71729      -1.51964355    
   3.93283010       3.01776695      -6.00000000       1994.71729      -1.51964355    
   3.53553391       3.53553391      -5.00000000       2087.27856      -1.51894677    
   3.53553391       3.53553391      -4.00000000       2087.27856      -1.51894677    
   3.93283010       3.01776695      -4.00000000       2087.27856      -1.51894677    
   3.93283010       3.01776695      -5.00000000       2087.27856      -1.51894677    
   3.53553391       3.53553391      -4.00000000       2170.85669      -1.51811337    
   3.53553391       3.53553391      -3.00000000       2170.85669      -1.51811337    
   3.93283010       3.01776695      -3.00000000       2170.85669      -1.51811337    
   3.93283010       3.01776695      -4.00000000       2170.85669      -1.51811337    
   3.53553391       3.53553391      -3.00000000       2250.47974      -1.51724434    
   3.53553391       3.53553391      -2.00000000       2250.47974      -1.51724434    
   3.93283010       3.01776695      -2.00000000       2250.47974      -1.51724434    
   3.93283010       3.01776695      -3.00000000       2250.47974      -1.51724434    
   3.53553391       3.53553391      -2.00000000       2331.92505      -1.51644981    
   3.53553391       3.53553391      -1.00000000       2331.92505      -1.51644981    
   3.93283010       3.01776695      -1.00000000       2331.92505      -1.51644981    
   3.93283010       3.01776695      -2.00000000       2331.92505      -1.51644981    
   3.53553391       3.53553391      -1.00000000       2422.21045      -1.51588082    
   3.53553391       3.53553391       0.00000000       2422.21045      -1.51588082    
   3.93283010       3.01776695       0.00000000       2422.21045      -1.51588082    
   3.93283010       3.01776695      -1.00000000       2422.21045      -1.51588082    
   3.93283010       3.01776695      -10.0000000       1068.89453      -1.51431262    
   3.93283010       3.01776695      -9.00000000       1068.89453      -1.51431262    
   4.33012676       2.50000000      -9.00000000       1068.89453      -1.51431262    
   4.33012676       2.50000000      -10.0000000       1068.89453      -1.51431262    
   3.93283010       3.01776695      -9.00000000       1338.91284      -1.51925600    
   3.93283010       3.01776695      -8.00000000       1338.91284      -1.51925600    
   4.33012676       2.50000000      -8.00000000       1338.91284      -1.51925600    
   4.33012676       2.50000000      -9.00000000       1338.91284      -1.51925600    
   3.93283010       3.01776695      -8.00000000       1499.85120      -1.52046740    
   3.93283010       3.01776695      -7.00000000       1499.85120      -1.52046740    
   4.33012676       2.50000000      -7.00000000       1499.85120      -1.52046740    
   4.33012676       2.50000000      -8.00000000       1499.85120      -1.52046740    
   3.93283010       3.01776695      -7.00000000       1616.78259      -1.52055442    
   3.93283010       3.01776695      -6.00000000       1616.78259      -1.52055442    
   4.33012676       2.50000000      -6.00000000       1616.78259      -1.52055442    
   4.33012676       2.50000000      -7.00000000       1616.78259      -1.52055442    
   3.93283010       3.01776695      -6.00000000       1709.36572      -1.52011478    
   3.93283010       3.01776695      -5.00000000       1709.36572      -1.52011478    
   4.33012676       2.50000000      -5.00000000       1709.36572      -1.52011478    
   4.33012676       2.50000000      -6.00000000       1709.36572      -1.52011478    
   3.93283010       3.01776695      -5.00000000       1787.98877      -1.51940382    
   3.93283010       3.01776695      -4.00000000       1787.98877      -1.51940382    
   4.33012676       2.50000000      -4.00000000       1787.98877      -1.51940382    
   4.33012676       2.50000000      -5.00000000       1787.98877      -1.51940382    
   3.93283010       3.01776695      -4.00000000       1858.97437      -1.51856101    
   3.93283010       3.01776695      -3.00000000       1858.97437      -1.51856101    
   4.33012676       2.50000000      -3.00000000       1858.97437      -1.51856101    
   4.33012676       2.50000000      -4.00000000       1858.97437      -1.51856101    
   3.93283010       3.01776695      -3.00000000       1926.58398      -1.51768327    
   3.93283010       3.01776695      -2.00000000       1926.58398      -1.51768327    
   4.33012676       2.50000000      -2.00000000       1926.58398      -1.51768327    
   4.33012676       2.50000000      -3.00000000       1926.58398      -1.51768327    
   3.93283010       3.01776695      -2.00000000       1995.74207      -1.51687968    
   3.93283010       3.01776695      -1.00000000       1995.74207      -1.51687968    
   4.33012676       2.50000000      -1.00000000       1995.74207      -1.51687968    
   4.33012676       2.50000000      -2.00000000       1995.74207      -1.51687968    
   3.93283010       3.01776695      -1.00000000       2072.24365      -1.51629746    
   3.93283010       3.01776695       0.00000000       2072.24365      -1.51629746    
   4.33012676       2.50000000       0.00000000       2072.24365      -1.51629746    
   4.33012676       2.50000000      -1.00000000       2072.24365      -1.51629746    
   2.50000000       4.33012676      -10.0000000       1571.92053      -1.51364994    
   2.50000000       4.33012676      -9.00000000       1571.92053      -1.51364994    
   3.01776695       3.93283010      -9.00000000       1571.92053      -1.51364994    
   3.01776695       3.93283010      -10.0000000       1571.92053      -1.51364994    
   2.50000000       4.33012676      -9.00000000       1972.31750      -1.51875639    
   2.50000000       4.33012676      -8.00000000       1972.31750      -1.51875639    
   3.01776695       3.93283010      -8.00000000       1972.31750      -1.51875639    
   3.01776695       3.93283010      -9.00000000       1972.31750      -1.51875639    
   2.50000000       4.33012676      -8.00000000       2211.58032      -1.52002943    
   2.50000000       4.33012676      -7.00000000       2211.58032      -1.52002943    
   3.01776695       3.93283010      -7.00000000       2211.58032      -1.52002943    
   3.01776695       3.93283010      -8.00000000       2211.58032      -1.52002943    
   2.50000000       4.33012676      -7.00000000       2385.41504      -1.52015007    
   2.50000000       4.33012676      -6.00000000       2385.41504      -1.52015007    
   3.01776695       3.93283010      -6.00000000       2385.41504      -1.52015007    
   3.01776695       3.93283010      -7.00000000       2385.41504      -1.52015007    
   2.50000000       4.33012676      -6.00000000       2523.10205      -1.51972973    
   2.50000000       4.33012676      -5.00000000       2523.10205      -1.51972973    
   3.01776695       3.93283010      -5.00000000       2523.10205      -1.51972973    
   3.01776695       3.93283010      -6.00000000       2523.10205      -1.51972973    
   2.50000000       4.33012676      -5.00000000       2640.00073      -1.51902926    
   2.50000000       4.33012676      -4.00000000       2640.00073      -1.51902926    
   3.01776695       3.93283010      -4.00000000       2640.00073      -1.51902926    
   3.01776695       3.93283010      -5.00000000       2640.00073      -1.51902926    
   2.50000000       4.33012676      -4.00000000       2745.54614      -1.51819444    
   2.50000000       4.33012676      -3.00000000       2745.54614      -1.51819444    
   3.01776695       3.93283010      -3.00000000       2745.54614      -1.51819444    
   3.01776695       3.93283010      -4.00000000       2745.54614      -1.51819444    
   2.50000000       4.33012676      -3.00000000       2846.09790      -1.51732385    
   2.50000000       4.33012676      -2.00000000       2846.09790      -1.51732385    
   3.01776695       3.93283010      -2.00000000       2846.09790      -1.51732385    
   3.01776695       3.93283010      -3.00000000       2846.09790      -1.51732385    
   2.50000000       4.33012676      -2.00000000       2948.94556      -1.51652861    
   2.50000000       4.33012676      -1.00000000       2948.94556      -1.51652861    
   3.01776695       3.93283010      -1.00000000       2948.94556      -1.51652861    
   3.01776695       3.93283010      -2.00000000       2948.94556      -1.51652861    
   2.50000000       4.33012676      -1.00000000       3062.91113      -1.51595545    
   2.50000000       4.33012676       0.00000000       3062.91113      -1.51595545    
   3.01776695       3.93283010       0.00000000       3062.91113      -1.51595545    
   3.01776695       3.93283010      -1.00000000       3062.91113      -1.51595545    
   3.01776695       3.93283010      -10.0000000       1439.31409      -1.51412499    
   3.01776695       3.93283010      -9.00000000       1439.31409      -1.51412499    
   3.53553391       3.53553391      -9.00000000       1439.31409      -1.51412499    
   3.53553391       3.53553391      -10.0000000       1439.31409      -1.51412499    
   3.01776695       3.93283010      -9.00000000       1803.76184      -1.51911426    
   3.01776695       3.93283010      -8.00000000       1803.76184      -1.51911426    
   3.53553391       3.53553391      -8.00000000       1803.76184      -1.51911426    
   3.53553391       3.53553391      -9.00000000       1803.76184      -1.51911426    
   3.01776695       3.93283010      -8.00000000       2021.14453      -1.52034307    
   3.01776695       3.93283010      -7.00000000       2021.14453      -1.52034307    
   3.53553391       3.53553391      -7.00000000       2021.14453      -1.52034307    
   3.53553391       3.53553391      -8.00000000       2021.14453      -1.52034307    
   3.01776695       3.93283010      -7.00000000       2179.08325      -1.52044022    
   3.01776695       3.93283010      -6.00000000       2179.08325      -1.52044022    
   3.53553391       3.53553391      -6.00000000       2179.08325      -1.52044022    
   3.53553391       3.53553391      -7.00000000       2179.08325      -1.52044022    
   3.01776695       3.93283010      -6.00000000       2304.14600      -1.52000701    
   3.01776695       3.93283010      -5.00000000       2304.14600      -1.52000701    
   3.53553391       3.53553391      -5.00000000       2304.14600      -1.52000701    
   3.53553391       3.53553391      -6.00000000       2304.14600      -1.52000701    
   3.01776695       3.93283010      -5.00000000       2410.35181      -1.51929784    
   3.01776695       3.93283010      -4.00000000       2410.35181      -1.51929784    
   3.53553391       3.53553391      -4.00000000       2410.35181      -1.51929784    
   3.53553391       3.53553391      -5.00000000       2410.35181      -1.51929784    
   3.01776695       3.93283010      -4.00000000       2506.23120      -1.51845706    
   3.01776695       3.93283010      -3.00000000       2506.23120      -1.51845706    
   3.53553391       3.53553391      -3.00000000       2506.23120      -1.51845706    
   3.53553391       3.53553391      -4.00000000       2506.23120      -1.51845706    
   3.01776695       3.93283010      -3.00000000       2597.56201      -1.51758122    
   3.01776695       3.93283010      -2.00000000       2597.56201      -1.51758122    
   3.53553391       3.53553391      -2.00000000       2597.56201      -1.51758122    
   3.53553391       3.53553391      -3.00000000       2597.56201      -1.51758122    
   3.01776695       3.93283010      -2.00000000       2690.98193      -1.51678026    
   3.01776695       3.93283010      -1.00000000       2690.98193      -1.51678026    
   3.53553391       3.53553391      -1.00000000       2690.98193      -1.51678026    
   3.53553391       3.53553391      -2.00000000       2690.98193      -1.51678026    
   3.01776695       3.93283010      -1.00000000       2794.37305      -1.51620054    
   3.01776695       3.93283010       0.00000000       2794.37305      -1.51620054    
   3.53553391       3.53553391       0.00000000       2794.37305      -1.51620054    
   3.53553391       3.53553391      -1.00000000       2794.37305      -1.51620054    
   1.29409504       4.82962894      -10.0000000       1795.00793      -1.51375246    
   1.29409504       4.82962894      -9.00000000       1795.00793      -1.51375246    
   1.89704800       4.57987785      -9.00000000       1795.00793      -1.51375246    
   1.89704800       4.57987785      -10.0000000       1795.00793      -1.51375246    
   1.29409504       4.82962894      -9.00000000       2251.64502      -1.51883304    
   1.29409504       4.82962894      -8.00000000       2251.64502      -1.51883304    
   1.89704800       4.57987785      -8.00000000       2251.64502      -1.51883304    
   1.89704800       4.57987785      -9.00000000       2251.64502      -1.51883304    
   1.29409504       4.82962894      -8.00000000       2524.41211      -1.52009773    
   1.29409504       4.82962894      -7.00000000       2524.41211      -1.52009773    
   1.89704800       4.57987785      -7.00000000       2524.41211      -1.52009773    
   1.89704800       4.57987785      -8.00000000       2524.41211      -1.52009773    
   1.29409504       4.82962894      -7.00000000       2722.59204      -1.52021265    
   1.29409504       4.82962894      -6.00000000       2722.59204      -1.52021265    
   1.89704800       4.57987785      -6.00000000       2722.59204      -1.52021265    
   1.89704800       4.57987785      -7.00000000       2722.59204      -1.52021265    
   1.29409504       4.82962894      -6.00000000       2879.54492      -1.51978862    
   1.29409504       4.82962894      -5.00000000       2879.54492      -1.51978862    
   1.89704800       4.57987785      -5.00000000       2879.54492      -1.51978862    
   1.89704800       4.57987785      -6.00000000       2879.54492      -1.51978862    
   1.29409504       4.82962894      -5.00000000       3012.81323      -1.51908684    
   1.29409504       4.82962894      -4.00000000       3012.81323      -1.51908684    
   1.89704800       4.57987785      -4.00000000       3012.81323      -1.51908684    
   1.89704800       4.57987785      -5.00000000       3012.81323      -1.51908684    
   1.29409504       4.82962894      -4.00000000       3133.13306      -1.51825058    
   1.29409504       4.82962894      -3.00000000       3133.13306      -1.51825058    
   1.89704800       4.57987785      -3.00000000       3133.13306      -1.51825058    