 VARIABLES="X" "Y" "Z" "abs(p) (Pa)" "angle(p) (rad)"
ZONE N=   1080,E =     600, F=FEPOINT, ET=QUADRILATERAL
   4.82962894       1.29409504      -10.0000000       2836.73535      -1.39905155    
   4.82962894       1.29409504      -9.00000000       2836.73535      -1.39905155    
   4.91481400      0.647047520      -9.00000000       2836.73535      -1.39905155    
   4.91481400      0.647047520      -10.0000000       2836.73535      -1.39905155    
   4.82962894       1.29409504      -9.00000000       3548.37451      -1.36601138    
   4.82962894       1.29409504      -8.00000000       3548.37451      -1.36601138    
   4.91481400      0.647047520      -8.00000000       3548.37451      -1.36601138    
   4.91481400      0.647047520      -9.00000000       3548.37451      -1.36601138    
   4.82962894       1.29409504      -8.00000000       3820.00415      -1.30324888    
   4.82962894       1.29409504      -7.00000000       3820.00415      -1.30324888    
   4.91481400      0.647047520      -7.00000000       3820.00415      -1.30324888    
   4.91481400      0.647047520      -8.00000000       3820.00415      -1.30324888    
   4.82962894       1.29409504      -7.00000000       3911.74463      -1.20755613    
   4.82962894       1.29409504      -6.00000000       3911.74463      -1.20755613    
   4.91481400      0.647047520      -6.00000000       3911.74463      -1.20755613    
   4.91481400      0.647047520      -7.00000000       3911.74463      -1.20755613    
   4.82962894       1.29409504      -6.00000000       3946.92700      -1.06944346    
   4.82962894       1.29409504      -5.00000000       3946.92700      -1.06944346    
   4.91481400      0.647047520      -5.00000000       3946.92700      -1.06944346    
   4.91481400      0.647047520      -6.00000000       3946.92700      -1.06944346    
   4.82962894       1.29409504      -5.00000000       4063.24976     -0.882657528    
   4.82962894       1.29409504      -4.00000000       4063.24976     -0.882657528    
   4.91481400      0.647047520      -4.00000000       4063.24976     -0.882657528    
   4.91481400      0.647047520      -5.00000000       4063.24976     -0.882657528    
   4.82962894       1.29409504      -4.00000000       4439.40820     -0.660642922    
   4.82962894       1.29409504      -3.00000000       4439.40820     -0.660642922    
   4.91481400      0.647047520      -3.00000000       4439.40820     -0.660642922    
   4.91481400      0.647047520      -4.00000000       4439.40820     -0.660642922    
   4.82962894       1.29409504      -3.00000000       5267.82422     -0.444494009    
   4.82962894       1.29409504      -2.00000000       5267.82422     -0.444494009    
   4.91481400      0.647047520      -2.00000000       5267.82422     -0.444494009    
   4.91481400      0.647047520      -3.00000000       5267.82422     -0.444494009    
   4.82962894       1.29409504      -2.00000000       6708.59961     -0.279365480    
   4.82962894       1.29409504      -1.00000000       6708.59961     -0.279365480    
   4.91481400      0.647047520      -1.00000000       6708.59961     -0.279365480    
   4.91481400      0.647047520      -2.00000000       6708.59961     -0.279365480    
   4.82962894       1.29409504      -1.00000000       8896.98047     -0.188780382    
   4.82962894       1.29409504       0.00000000       8896.98047     -0.188780382    
   4.91481400      0.647047520       0.00000000       8896.98047     -0.188780382    
   4.91481400      0.647047520      -1.00000000       8896.98047     -0.188780382    
   4.91481400      0.647047520      -10.0000000       2877.25122      -1.39864039    
   4.91481400      0.647047520      -9.00000000       2877.25122      -1.39864039    
   5.00000000       0.00000000      -9.00000000       2877.25122      -1.39864039    
   5.00000000       0.00000000      -10.0000000       2877.25122      -1.39864039    
   4.91481400      0.647047520      -9.00000000       3600.41577      -1.36561108    
   4.91481400      0.647047520      -8.00000000       3600.41577      -1.36561108    
   5.00000000       0.00000000      -8.00000000       3600.41577      -1.36561108    
   5.00000000       0.00000000      -9.00000000       3600.41577      -1.36561108    
   4.91481400      0.647047520      -8.00000000       3876.64062      -1.30276489    
   4.91481400      0.647047520      -7.00000000       3876.64062      -1.30276489    
   5.00000000       0.00000000      -7.00000000       3876.64062      -1.30276489    
   5.00000000       0.00000000      -8.00000000       3876.64062      -1.30276489    
   4.91481400      0.647047520      -7.00000000       3970.09839      -1.20692039    
   4.91481400      0.647047520      -6.00000000       3970.09839      -1.20692039    
   5.00000000       0.00000000      -6.00000000       3970.09839      -1.20692039    
   5.00000000       0.00000000      -7.00000000       3970.09839      -1.20692039    
   4.91481400      0.647047520      -6.00000000       4006.26758      -1.06858957    
   4.91481400      0.647047520      -5.00000000       4006.26758      -1.06858957    
   5.00000000       0.00000000      -5.00000000       4006.26758      -1.06858957    
   5.00000000       0.00000000      -6.00000000       4006.26758      -1.06858957    
   4.91481400      0.647047520      -5.00000000       4125.25391     -0.881559372    
   4.91481400      0.647047520      -4.00000000       4125.25391     -0.881559372    
   5.00000000       0.00000000      -4.00000000       4125.25391     -0.881559372    
   5.00000000       0.00000000      -5.00000000       4125.25391     -0.881559372    
   4.91481400      0.647047520      -4.00000000       4508.77686     -0.659391284    
   4.91481400      0.647047520      -3.00000000       4508.77686     -0.659391284    
   5.00000000       0.00000000      -3.00000000       4508.77686     -0.659391284    
   5.00000000       0.00000000      -4.00000000       4508.77686     -0.659391284    
   4.91481400      0.647047520      -3.00000000       5352.26172     -0.443284333    
   4.91481400      0.647047520      -2.00000000       5352.26172     -0.443284333    
   5.00000000       0.00000000      -2.00000000       5352.26172     -0.443284333    
   5.00000000       0.00000000      -3.00000000       5352.26172     -0.443284333    
   4.91481400      0.647047520      -2.00000000       6818.06543     -0.278348774    
   4.91481400      0.647047520      -1.00000000       6818.06543     -0.278348774    
   5.00000000       0.00000000      -1.00000000       6818.06543     -0.278348774    
   5.00000000       0.00000000      -2.00000000       6818.06543     -0.278348774    
   4.91481400      0.647047520      -1.00000000       9043.51953     -0.187992454    
   4.91481400      0.647047520       0.00000000       9043.51953     -0.187992454    
   5.00000000       0.00000000       0.00000000       9043.51953     -0.187992454    
   5.00000000       0.00000000      -1.00000000       9043.51953     -0.187992454    
   4.33012676       2.50000000      -10.0000000       2602.89526      -1.39950562    
   4.33012676       2.50000000      -9.00000000       2602.89526      -1.39950562    
   4.57987785       1.89704800      -9.00000000       2602.89526      -1.39950562    
   4.57987785       1.89704800      -10.0000000       2602.89526      -1.39950562    
   4.33012676       2.50000000      -9.00000000       3254.51367      -1.36645401    
   4.33012676       2.50000000      -8.00000000       3254.51367      -1.36645401    
   4.57987785       1.89704800      -8.00000000       3254.51367      -1.36645401    
   4.57987785       1.89704800      -9.00000000       3254.51367      -1.36645401    
   4.33012676       2.50000000      -8.00000000       3503.04102      -1.30378449    
   4.33012676       2.50000000      -7.00000000       3503.04102      -1.30378449    
   4.57987785       1.89704800      -7.00000000       3503.04102      -1.30378449    
   4.57987785       1.89704800      -8.00000000       3503.04102      -1.30378449    
   4.33012676       2.50000000      -7.00000000       3586.81543      -1.20826042    
   4.33012676       2.50000000      -6.00000000       3586.81543      -1.20826042    
   4.57987785       1.89704800      -6.00000000       3586.81543      -1.20826042    
   4.57987785       1.89704800      -7.00000000       3586.81543      -1.20826042    
   4.33012676       2.50000000      -6.00000000       3618.61157      -1.07038796    
   4.33012676       2.50000000      -5.00000000       3618.61157      -1.07038796    
   4.57987785       1.89704800      -5.00000000       3618.61157      -1.07038796    
   4.57987785       1.89704800      -6.00000000       3618.61157      -1.07038796    
   4.33012676       2.50000000      -5.00000000       3724.34790     -0.883873641    
   4.33012676       2.50000000      -4.00000000       3724.34790     -0.883873641    
   4.57987785       1.89704800      -4.00000000       3724.34790     -0.883873641    
   4.57987785       1.89704800      -5.00000000       3724.34790     -0.883873641    
   4.33012676       2.50000000      -4.00000000       4067.50903     -0.662030697    
   4.33012676       2.50000000      -3.00000000       4067.50903     -0.662030697    
   4.57987785       1.89704800      -3.00000000       4067.50903     -0.662030697    
   4.57987785       1.89704800      -4.00000000       4067.50903     -0.662030697    
   4.33012676       2.50000000      -3.00000000       4824.40381     -0.445836604    
   4.33012676       2.50000000      -2.00000000       4824.40381     -0.445836604    
   4.57987785       1.89704800      -2.00000000       4824.40381     -0.445836604    
   4.57987785       1.89704800      -3.00000000       4824.40381     -0.445836604    
   4.33012676       2.50000000      -2.00000000       6141.95752     -0.280494690    
   4.33012676       2.50000000      -1.00000000       6141.95752     -0.280494690    
   4.57987785       1.89704800      -1.00000000       6141.95752     -0.280494690    
   4.57987785       1.89704800      -2.00000000       6141.95752     -0.280494690    
   4.33012676       2.50000000      -1.00000000       8144.13281     -0.189655617    
   4.33012676       2.50000000       0.00000000       8144.13281     -0.189655617    
   4.57987785       1.89704800       0.00000000       8144.13281     -0.189655617    
   4.57987785       1.89704800      -1.00000000       8144.13281     -0.189655617    
   4.57987785       1.89704800      -10.0000000       2721.69141      -1.39821208    
   4.57987785       1.89704800      -9.00000000       2721.69141      -1.39821208    
   4.82962894       1.29409504      -9.00000000       2721.69141      -1.39821208    
   4.82962894       1.29409504      -10.0000000       2721.69141      -1.39821208    
   4.57987785       1.89704800      -9.00000000       3407.09985      -1.36519420    
   4.57987785       1.89704800      -8.00000000       3407.09985      -1.36519420    
   4.82962894       1.29409504      -8.00000000       3407.09985      -1.36519420    
   4.82962894       1.29409504      -9.00000000       3407.09985      -1.36519420    
   4.57987785       1.89704800      -8.00000000       3669.09326      -1.30226135    
   4.57987785       1.89704800      -7.00000000       3669.09326      -1.30226135    
   4.82962894       1.29409504      -7.00000000       3669.09326      -1.30226135    
   4.82962894       1.29409504      -8.00000000       3669.09326      -1.30226135    
   4.57987785       1.89704800      -7.00000000       3757.89551      -1.20625794    
   4.57987785       1.89704800      -6.00000000       3757.89551      -1.20625794    
   4.82962894       1.29409504      -6.00000000       3757.89551      -1.20625794    
   4.82962894       1.29409504      -7.00000000       3757.89551      -1.20625794    
   4.57987785       1.89704800      -6.00000000       3792.59155      -1.06770182    
   4.57987785       1.89704800      -5.00000000       3792.59155      -1.06770182    
   4.82962894       1.29409504      -5.00000000       3792.59155      -1.06770182    
   4.82962894       1.29409504      -6.00000000       3792.59155      -1.06770182    
   4.57987785       1.89704800      -5.00000000       3906.13428     -0.880417705    
   4.57987785       1.89704800      -4.00000000       3906.13428     -0.880417705    
   4.82962894       1.29409504      -4.00000000       3906.13428     -0.880417705    
   4.82962894       1.29409504      -5.00000000       3906.13428     -0.880417705    
   4.57987785       1.89704800      -4.00000000       4270.89014     -0.658090770    
   4.57987785       1.89704800      -3.00000000       4270.89014     -0.658090770    
   4.82962894       1.29409504      -3.00000000       4270.89014     -0.658090770    
   4.82962894       1.29409504      -4.00000000       4270.89014     -0.658090770    
   4.57987785       1.89704800      -3.00000000       5071.95947     -0.442027867    
   4.57987785       1.89704800      -2.00000000       5071.95947     -0.442027867    
   4.82962894       1.29409504      -2.00000000       5071.95947     -0.442027867    
   4.82962894       1.29409504      -3.00000000       5071.95947     -0.442027867    
   4.57987785       1.89704800      -2.00000000       6462.90088     -0.277293086    
   4.57987785       1.89704800      -1.00000000       6462.90088     -0.277293086    
   4.82962894       1.29409504      -1.00000000       6462.90088     -0.277293086    
   4.82962894       1.29409504      -2.00000000       6462.90088     -0.277293086    
   4.57987785       1.89704800      -1.00000000       8573.76465     -0.187175184    
   4.57987785       1.89704800       0.00000000       8573.76465     -0.187175184    
   4.82962894       1.29409504       0.00000000       8573.76465     -0.187175184    
   4.82962894       1.29409504      -1.00000000       8573.76465     -0.187175184    
   3.53553391       3.53553391      -10.0000000       2191.68042      -1.40009391    
   3.53553391       3.53553391      -9.00000000       2191.68042      -1.40009391    
   3.93283010       3.01776695      -9.00000000       2191.68042      -1.40009391    
   3.93283010       3.01776695      -10.0000000       2191.68042      -1.40009391    
   3.53553391       3.53553391      -9.00000000       2738.86816      -1.36702800    
   3.53553391       3.53553391      -8.00000000       2738.86816      -1.36702800    
   3.93283010       3.01776695      -8.00000000       2738.86816      -1.36702800    
   3.93283010       3.01776695      -9.00000000       2738.86816      -1.36702800    
   3.53553391       3.53553391      -8.00000000       2947.35278      -1.30447841    
   3.53553391       3.53553391      -7.00000000       2947.35278      -1.30447841    
   3.93283010       3.01776695      -7.00000000       2947.35278      -1.30447841    
   3.93283010       3.01776695      -8.00000000       2947.35278      -1.30447841    
   3.53553391       3.53553391      -7.00000000       3017.45435      -1.20917344    
   3.53553391       3.53553391      -6.00000000       3017.45435      -1.20917344    
   3.93283010       3.01776695      -6.00000000       3017.45435      -1.20917344    
   3.93283010       3.01776695      -7.00000000       3017.45435      -1.20917344    
   3.53553391       3.53553391      -6.00000000       3043.69922      -1.07161355    
   3.53553391       3.53553391      -5.00000000       3043.69922      -1.07161355    
   3.93283010       3.01776695      -5.00000000       3043.69922      -1.07161355    
   3.93283010       3.01776695      -6.00000000       3043.69922      -1.07161355    
   3.53553391       3.53553391      -5.00000000       3131.64575     -0.885451317    
   3.53553391       3.53553391      -4.00000000       3131.64575     -0.885451317    
   3.93283010       3.01776695      -4.00000000       3131.64575     -0.885451317    
   3.93283010       3.01776695      -5.00000000       3131.64575     -0.885451317    
   3.53553391       3.53553391      -4.00000000       3418.42407     -0.663832724    
   3.53553391       3.53553391      -3.00000000       3418.42407     -0.663832724    
   3.93283010       3.01776695      -3.00000000       3418.42407     -0.663832724    
   3.93283010       3.01776695      -4.00000000       3418.42407     -0.663832724    
   3.53553391       3.53553391      -3.00000000       4052.21484     -0.447581649    
   3.53553391       3.53553391      -2.00000000       4052.21484     -0.447581649    
   3.93283010       3.01776695      -2.00000000       4052.21484     -0.447581649    
   3.93283010       3.01776695      -3.00000000       4052.21484     -0.447581649    
   3.53553391       3.53553391      -2.00000000       5156.76123     -0.281963497    
   3.53553391       3.53553391      -1.00000000       5156.76123     -0.281963497    
   3.93283010       3.01776695      -1.00000000       5156.76123     -0.281963497    
   3.93283010       3.01776695      -2.00000000       5156.76123     -0.281963497    
   3.53553391       3.53553391      -1.00000000       6836.28955     -0.190794051    
   3.53553391       3.53553391       0.00000000       6836.28955     -0.190794051    
   3.93283010       3.01776695       0.00000000       6836.28955     -0.190794051    
   3.93283010       3.01776695      -1.00000000       6836.28955     -0.190794051    
   3.93283010       3.01776695      -10.0000000       2380.65161      -1.39769435    
   3.93283010       3.01776695      -9.00000000       2380.65161      -1.39769435    
   4.33012676       2.50000000      -9.00000000       2380.65161      -1.39769435    
   4.33012676       2.50000000      -10.0000000       2380.65161      -1.39769435    
   3.93283010       3.01776695      -9.00000000       2981.59424      -1.36469090    
   3.93283010       3.01776695      -8.00000000       2981.59424      -1.36469090    
   4.33012676       2.50000000      -8.00000000       2981.59424      -1.36469090    
   4.33012676       2.50000000      -9.00000000       2981.59424      -1.36469090    
   3.93283010       3.01776695      -8.00000000       3211.50366      -1.30165327    
   3.93283010       3.01776695      -7.00000000       3211.50366      -1.30165327    
   4.33012676       2.50000000      -7.00000000       3211.50366      -1.30165327    
   4.33012676       2.50000000      -8.00000000       3211.50366      -1.30165327    
   3.93283010       3.01776695      -7.00000000       3289.60425      -1.20545888    
   3.93283010       3.01776695      -6.00000000       3289.60425      -1.20545888    
   4.33012676       2.50000000      -6.00000000       3289.60425      -1.20545888    
   4.33012676       2.50000000      -7.00000000       3289.60425      -1.20545888    
   3.93283010       3.01776695      -6.00000000       3320.45947      -1.06663024    
   3.93283010       3.01776695      -5.00000000       3320.45947      -1.06663024    
   4.33012676       2.50000000      -5.00000000       3320.45947      -1.06663024    
   4.33012676       2.50000000      -6.00000000       3320.45947      -1.06663024    
   3.93283010       3.01776695      -5.00000000       3420.82275     -0.879039943    
   3.93283010       3.01776695      -4.00000000       3420.82275     -0.879039943    
   4.33012676       2.50000000      -4.00000000       3420.82275     -0.879039943    
   4.33012676       2.50000000      -5.00000000       3420.82275     -0.879039943    
   3.93283010       3.01776695      -4.00000000       3741.95435     -0.656522810    
   3.93283010       3.01776695      -3.00000000       3741.95435     -0.656522810    
   4.33012676       2.50000000      -3.00000000       3741.95435     -0.656522810    
   4.33012676       2.50000000      -4.00000000       3741.95435     -0.656522810    
   3.93283010       3.01776695      -3.00000000       4446.02100     -0.440515310    
   3.93283010       3.01776695      -2.00000000       4446.02100     -0.440515310    
   4.33012676       2.50000000      -2.00000000       4446.02100     -0.440515310    
   4.33012676       2.50000000      -3.00000000       4446.02100     -0.440515310    
   3.93283010       3.01776695      -2.00000000       5667.31104     -0.276023358    
   3.93283010       3.01776695      -1.00000000       5667.31104     -0.276023358    
   4.33012676       2.50000000      -1.00000000       5667.31104     -0.276023358    
   4.33012676       2.50000000      -2.00000000       5667.31104     -0.276023358    
   3.93283010       3.01776695      -1.00000000       7519.72803     -0.186191902    
   3.93283010       3.01776695       0.00000000       7519.72803     -0.186191902    
   4.33012676       2.50000000       0.00000000       7519.72803     -0.186191902    
   4.33012676       2.50000000      -1.00000000       7519.72803     -0.186191902    
   2.50000000       4.33012676      -10.0000000       1631.10193      -1.40103221    
   2.50000000       4.33012676      -9.00000000       1631.10193      -1.40103221    
   3.01776695       3.93283010      -9.00000000       1631.10193      -1.40103221    
   3.01776695       3.93283010      -10.0000000       1631.10193      -1.40103221    
   2.50000000       4.33012676      -9.00000000       2036.57373      -1.36794484    
   2.50000000       4.33012676      -8.00000000       2036.57373      -1.36794484    
   3.01776695       3.93283010      -8.00000000       2036.57373      -1.36794484    
   3.01776695       3.93283010      -9.00000000       2036.57373      -1.36794484    
   2.50000000       4.33012676      -8.00000000       2190.81030      -1.30558825    
   2.50000000       4.33012676      -7.00000000       2190.81030      -1.30558825    
   3.01776695       3.93283010      -7.00000000       2190.81030      -1.30558825    
   3.01776695       3.93283010      -8.00000000       2190.81030      -1.30558825    
   2.50000000       4.33012676      -7.00000000       2242.45947      -1.21063340    
   2.50000000       4.33012676      -6.00000000       2242.45947      -1.21063340    
   3.01776695       3.93283010      -6.00000000       2242.45947      -1.21063340    
   3.01776695       3.93283010      -7.00000000       2242.45947      -1.21063340    
   2.50000000       4.33012676      -6.00000000       2261.36938      -1.07357430    
   2.50000000       4.33012676      -5.00000000       2261.36938      -1.07357430    
   3.01776695       3.93283010      -5.00000000       2261.36938      -1.07357430    
   3.01776695       3.93283010      -6.00000000       2261.36938      -1.07357430    
   2.50000000       4.33012676      -5.00000000       2325.53809     -0.887978852    
   2.50000000       4.33012676      -4.00000000       2325.53809     -0.887978852    
   3.01776695       3.93283010      -4.00000000       2325.53809     -0.887978852    
   3.01776695       3.93283010      -5.00000000       2325.53809     -0.887978852    
   2.50000000       4.33012676      -4.00000000       2536.39722     -0.666722059    
   2.50000000       4.33012676      -3.00000000       2536.39722     -0.666722059    
   3.01776695       3.93283010      -3.00000000       2536.39722     -0.666722059    
   3.01776695       3.93283010      -4.00000000       2536.39722     -0.666722059    
   2.50000000       4.33012676      -3.00000000       3003.89600     -0.450384527    
   2.50000000       4.33012676      -2.00000000       3003.89600     -0.450384527    
   3.01776695       3.93283010      -2.00000000       3003.89600     -0.450384527    
   3.01776695       3.93283010      -3.00000000       3003.89600     -0.450384527    
   2.50000000       4.33012676      -2.00000000       3820.15625     -0.284324497    
   2.50000000       4.33012676      -1.00000000       3820.15625     -0.284324497    
   3.01776695       3.93283010      -1.00000000       3820.15625     -0.284324497    
   3.01776695       3.93283010      -2.00000000       3820.15625     -0.284324497    
   2.50000000       4.33012676      -1.00000000       5062.56885     -0.192625806    
   2.50000000       4.33012676       0.00000000       5062.56885     -0.192625806    
   3.01776695       3.93283010       0.00000000       5062.56885     -0.192625806    
   3.01776695       3.93283010      -1.00000000       5062.56885     -0.192625806    
   3.01776695       3.93283010      -10.0000000       1877.37427      -1.39694369    
   3.01776695       3.93283010      -9.00000000       1877.37427      -1.39694369    
   3.53553391       3.53553391      -9.00000000       1877.37427      -1.39694369    
   3.53553391       3.53553391      -10.0000000       1877.37427      -1.39694369    
   3.01776695       3.93283010      -9.00000000       2352.89868      -1.36396205    
   3.01776695       3.93283010      -8.00000000       2352.89868      -1.36396205    
   3.53553391       3.53553391      -8.00000000       2352.89868      -1.36396205    
   3.53553391       3.53553391      -9.00000000       2352.89868      -1.36396205    
   3.01776695       3.93283010      -8.00000000       2535.05444      -1.30077279    
   3.01776695       3.93283010      -7.00000000       2535.05444      -1.30077279    
   3.53553391       3.53553391      -7.00000000       2535.05444      -1.30077279    
   3.53553391       3.53553391      -8.00000000       2535.05444      -1.30077279    
   3.01776695       3.93283010      -7.00000000       2597.13159      -1.20430279    
   3.01776695       3.93283010      -6.00000000       2597.13159      -1.20430279    
   3.53553391       3.53553391      -6.00000000       2597.13159      -1.20430279    
   3.53553391       3.53553391      -7.00000000       2597.13159      -1.20430279    
   3.01776695       3.93283010      -6.00000000       2622.04907      -1.06507969    
   3.01776695       3.93283010      -5.00000000       2622.04907      -1.06507969    
   3.53553391       3.53553391      -5.00000000       2622.04907      -1.06507969    
   3.53553391       3.53553391      -6.00000000       2622.04907      -1.06507969    
   3.01776695       3.93283010      -5.00000000       2702.39502     -0.877049446    
   3.01776695       3.93283010      -4.00000000       2702.39502     -0.877049446    
   3.53553391       3.53553391      -4.00000000       2702.39502     -0.877049446    
   3.53553391       3.53553391      -5.00000000       2702.39502     -0.877049446    
   3.01776695       3.93283010      -4.00000000       2958.02246     -0.654259384    
   3.01776695       3.93283010      -3.00000000       2958.02246     -0.654259384    
   3.53553391       3.53553391      -3.00000000       2958.02246     -0.654259384    
   3.53553391       3.53553391      -4.00000000       2958.02246     -0.654259384    
   3.01776695       3.93283010      -3.00000000       3517.10791     -0.438332886    
   3.01776695       3.93283010      -2.00000000       3517.10791     -0.438332886    
   3.53553391       3.53553391      -2.00000000       3517.10791     -0.438332886    
   3.53553391       3.53553391      -3.00000000       3517.10791     -0.438332886    
   3.01776695       3.93283010      -2.00000000       4485.51562     -0.274193466    
   3.01776695       3.93283010      -1.00000000       4485.51562     -0.274193466    
   3.53553391       3.53553391      -1.00000000       4485.51562     -0.274193466    
   3.53553391       3.53553391      -2.00000000       4485.51562     -0.274193466    
   3.01776695       3.93283010      -1.00000000       5953.24268     -0.184775621    
   3.01776695       3.93283010       0.00000000       5953.24268     -0.184775621    
   3.53553391       3.53553391       0.00000000       5953.24268     -0.184775621    
   3.53553391       3.53553391      -1.00000000       5953.24268     -0.184775621    
   1.29409504       4.82962894      -10.0000000       959.370972      -1.40317595    
   1.29409504       4.82962894      -9.00000000       959.370972      -1.40317595    
   1.89704800       4.57987785      -9.00000000       959.370972      -1.40317595    
   1.89704800       4.57987785      -10.0000000       959.370972      -1.40317595    
   1.29409504       4.82962894      -9.00000000       1195.49011      -1.37004483    
   1.29409504       4.82962894      -8.00000000       1195.49011      -1.37004483    
   1.89704800       4.57987785      -8.00000000       1195.49011      -1.37004483    
   1.89704800       4.57987785      -9.00000000       1195.49011      -1.37004483    
   1.29409504       4.82962894      -8.00000000       1284.97266      -1.30813396    
   1.29409504       4.82962894      -7.00000000       1284.97266      -1.30813396    
   1.89704800       4.57987785      -7.00000000       1284.97266      -1.30813396    
   1.89704800       4.57987785      -8.00000000       1284.97266      -1.30813396    
   1.29409504       4.82962894      -7.00000000       1314.65637      -1.21398473    
   1.29409504       4.82962894      -6.00000000       1314.65637      -1.21398473    
   1.89704800       4.57987785      -6.00000000       1314.65637      -1.21398473    
   1.89704800       4.57987785      -7.00000000       1314.65637      -1.21398473    
   1.29409504       4.82962894      -6.00000000       1324.95093      -1.07807803    
   1.29409504       4.82962894      -5.00000000       1324.95093      -1.07807803    
   1.89704800       4.57987785      -5.00000000       1324.95093      -1.07807803    
   1.89704800       4.57987785      -6.00000000       1324.95093      -1.07807803    
   1.29409504       4.82962894      -5.00000000       1360.98181     -0.893793285    
   1.29409504       4.82962894      -4.00000000       1360.98181     -0.893793285    
   1.89704800       4.57987785      -4.00000000       1360.98181     -0.893793285    
   1.89704800       4.57987785      -5.00000000       1360.98181     -0.893793285    
   1.29409504       4.82962894      -4.00000000       1481.56567     -0.673388422    
   1.29409504       4.82962894      -3.00000000       1481.56567     -0.673388422    
   1.89704800       4.57987785      -3.00000000       1481.56567     -0.673388422    