 VARIABLES="X" "Y" "Z" "abs(p) (Pa)" "angle(p) (rad)"
ZONE N=   1080,E =     600, F=FEPOINT, ET=QUADRILATERAL
   4.82962894       1.29409504      -10.0000000       2906.16626      -1.23487973    
   4.82962894       1.29409504      -9.00000000       2906.16626      -1.23487973    
   4.91481400      0.647047520      -9.00000000       2906.16626      -1.23487973    
   4.91481400      0.647047520      -10.0000000       2906.16626      -1.23487973    
   4.82962894       1.29409504      -9.00000000       3703.42749      -1.24717057    
   4.82962894       1.29409504      -8.00000000       3703.42749      -1.24717057    
   4.91481400      0.647047520      -8.00000000       3703.42749      -1.24717057    
   4.91481400      0.647047520      -9.00000000       3703.42749      -1.24717057    
   4.82962894       1.29409504      -8.00000000       4231.46240      -1.23923564    
   4.82962894       1.29409504      -7.00000000       4231.46240      -1.23923564    
   4.91481400      0.647047520      -7.00000000       4231.46240      -1.23923564    
   4.91481400      0.647047520      -8.00000000       4231.46240      -1.23923564    
   4.82962894       1.29409504      -7.00000000       4668.68652      -1.22481787    
   4.82962894       1.29409504      -6.00000000       4668.68652      -1.22481787    
   4.91481400      0.647047520      -6.00000000       4668.68652      -1.22481787    
   4.91481400      0.647047520      -7.00000000       4668.68652      -1.22481787    
   4.82962894       1.29409504      -6.00000000       5074.68018      -1.20740330    
   4.82962894       1.29409504      -5.00000000       5074.68018      -1.20740330    
   4.91481400      0.647047520      -5.00000000       5074.68018      -1.20740330    
   4.91481400      0.647047520      -6.00000000       5074.68018      -1.20740330    
   4.82962894       1.29409504      -5.00000000       5484.98828      -1.18880594    
   4.82962894       1.29409504      -4.00000000       5484.98828      -1.18880594    
   4.91481400      0.647047520      -4.00000000       5484.98828      -1.18880594    
   4.91481400      0.647047520      -5.00000000       5484.98828      -1.18880594    
   4.82962894       1.29409504      -4.00000000       5926.16455      -1.17036641    
   4.82962894       1.29409504      -3.00000000       5926.16455      -1.17036641    
   4.91481400      0.647047520      -3.00000000       5926.16455      -1.17036641    
   4.91481400      0.647047520      -4.00000000       5926.16455      -1.17036641    
   4.82962894       1.29409504      -3.00000000       6422.20068      -1.15331817    
   4.82962894       1.29409504      -2.00000000       6422.20068      -1.15331817    
   4.91481400      0.647047520      -2.00000000       6422.20068      -1.15331817    
   4.91481400      0.647047520      -3.00000000       6422.20068      -1.15331817    
   4.82962894       1.29409504      -2.00000000       7004.56445      -1.13914597    
   4.82962894       1.29409504      -1.00000000       7004.56445      -1.13914597    
   4.91481400      0.647047520      -1.00000000       7004.56445      -1.13914597    
   4.91481400      0.647047520      -2.00000000       7004.56445      -1.13914597    
   4.82962894       1.29409504      -1.00000000       7716.14209      -1.12986612    
   4.82962894       1.29409504       0.00000000       7716.14209      -1.12986612    
   4.91481400      0.647047520       0.00000000       7716.14209      -1.12986612    
   4.91481400      0.647047520      -1.00000000       7716.14209      -1.12986612    
   4.91481400      0.647047520      -10.0000000       2950.61646      -1.23440361    
   4.91481400      0.647047520      -9.00000000       2950.61646      -1.23440361    
   5.00000000       0.00000000      -9.00000000       2950.61646      -1.23440361    
   5.00000000       0.00000000      -10.0000000       2950.61646      -1.23440361    
   4.91481400      0.647047520      -9.00000000       3760.84912      -1.24679756    
   4.91481400      0.647047520      -8.00000000       3760.84912      -1.24679756    
   5.00000000       0.00000000      -8.00000000       3760.84912      -1.24679756    
   5.00000000       0.00000000      -9.00000000       3760.84912      -1.24679756    
   4.91481400      0.647047520      -8.00000000       4297.65137      -1.23890018    
   4.91481400      0.647047520      -7.00000000       4297.65137      -1.23890018    
   5.00000000       0.00000000      -7.00000000       4297.65137      -1.23890018    
   5.00000000       0.00000000      -8.00000000       4297.65137      -1.23890018    
   4.91481400      0.647047520      -7.00000000       4742.15283      -1.22450089    
   4.91481400      0.647047520      -6.00000000       4742.15283      -1.22450089    
   5.00000000       0.00000000      -6.00000000       4742.15283      -1.22450089    
   5.00000000       0.00000000      -7.00000000       4742.15283      -1.22450089    
   4.91481400      0.647047520      -6.00000000       5154.92041      -1.20709741    
   4.91481400      0.647047520      -5.00000000       5154.92041      -1.20709741    
   5.00000000       0.00000000      -5.00000000       5154.92041      -1.20709741    
   5.00000000       0.00000000      -6.00000000       5154.92041      -1.20709741    
   4.91481400      0.647047520      -5.00000000       5572.07471      -1.18850851    
   4.91481400      0.647047520      -4.00000000       5572.07471      -1.18850851    
   5.00000000       0.00000000      -4.00000000       5572.07471      -1.18850851    
   5.00000000       0.00000000      -5.00000000       5572.07471      -1.18850851    
   4.91481400      0.647047520      -4.00000000       6020.60938      -1.17007828    
   4.91481400      0.647047520      -3.00000000       6020.60938      -1.17007828    
   5.00000000       0.00000000      -3.00000000       6020.60938      -1.17007828    
   5.00000000       0.00000000      -4.00000000       6020.60938      -1.17007828    
   4.91481400      0.647047520      -3.00000000       6524.92090      -1.15304172    
   4.91481400      0.647047520      -2.00000000       6524.92090      -1.15304172    
   5.00000000       0.00000000      -2.00000000       6524.92090      -1.15304172    
   5.00000000       0.00000000      -3.00000000       6524.92090      -1.15304172    
   4.91481400      0.647047520      -2.00000000       7116.98584      -1.13888407    
   4.91481400      0.647047520      -1.00000000       7116.98584      -1.13888407    
   5.00000000       0.00000000      -1.00000000       7116.98584      -1.13888407    
   5.00000000       0.00000000      -2.00000000       7116.98584      -1.13888407    
   4.91481400      0.647047520      -1.00000000       7840.46875      -1.12962389    
   4.91481400      0.647047520       0.00000000       7840.46875      -1.12962389    
   5.00000000       0.00000000       0.00000000       7840.46875      -1.12962389    
   5.00000000       0.00000000      -1.00000000       7840.46875      -1.12962389    
   4.33012676       2.50000000      -10.0000000       2663.66504      -1.23540771    
   4.33012676       2.50000000      -9.00000000       2663.66504      -1.23540771    
   4.57987785       1.89704800      -9.00000000       2663.66504      -1.23540771    
   4.57987785       1.89704800      -10.0000000       2663.66504      -1.23540771    
   4.33012676       2.50000000      -9.00000000       3393.62866      -1.24758482    
   4.33012676       2.50000000      -8.00000000       3393.62866      -1.24758482    
   4.57987785       1.89704800      -8.00000000       3393.62866      -1.24758482    
   4.57987785       1.89704800      -9.00000000       3393.62866      -1.24758482    
   4.33012676       2.50000000      -8.00000000       3876.90576      -1.23960745    
   4.33012676       2.50000000      -7.00000000       3876.90576      -1.23960745    
   4.57987785       1.89704800      -7.00000000       3876.90576      -1.23960745    
   4.57987785       1.89704800      -8.00000000       3876.90576      -1.23960745    
   4.33012676       2.50000000      -7.00000000       4277.05859      -1.22516930    
   4.33012676       2.50000000      -6.00000000       4277.05859      -1.22516930    
   4.57987785       1.89704800      -6.00000000       4277.05859      -1.22516930    
   4.57987785       1.89704800      -7.00000000       4277.05859      -1.22516930    
   4.33012676       2.50000000      -6.00000000       4648.60938      -1.20774329    
   4.33012676       2.50000000      -5.00000000       4648.60938      -1.20774329    
   4.57987785       1.89704800      -5.00000000       4648.60938      -1.20774329    
   4.57987785       1.89704800      -6.00000000       4648.60938      -1.20774329    
   4.33012676       2.50000000      -5.00000000       5024.11426      -1.18913567    
   4.33012676       2.50000000      -4.00000000       5024.11426      -1.18913567    
   4.57987785       1.89704800      -4.00000000       5024.11426      -1.18913567    
   4.57987785       1.89704800      -5.00000000       5024.11426      -1.18913567    
   4.33012676       2.50000000      -4.00000000       5427.86523      -1.17068601    
   4.33012676       2.50000000      -3.00000000       5427.86523      -1.17068601    
   4.57987785       1.89704800      -3.00000000       5427.86523      -1.17068601    
   4.57987785       1.89704800      -4.00000000       5427.86523      -1.17068601    
   4.33012676       2.50000000      -3.00000000       5881.82324      -1.15362501    
   4.33012676       2.50000000      -2.00000000       5881.82324      -1.15362501    
   4.57987785       1.89704800      -2.00000000       5881.82324      -1.15362501    
   4.57987785       1.89704800      -3.00000000       5881.82324      -1.15362501    
   4.33012676       2.50000000      -2.00000000       6414.79541      -1.13943696    
   4.33012676       2.50000000      -1.00000000       6414.79541      -1.13943696    
   4.57987785       1.89704800      -1.00000000       6414.79541      -1.13943696    
   4.57987785       1.89704800      -2.00000000       6414.79541      -1.13943696    
   4.33012676       2.50000000      -1.00000000       7065.97900      -1.13013482    
   4.33012676       2.50000000       0.00000000       7065.97900      -1.13013482    
   4.57987785       1.89704800       0.00000000       7065.97900      -1.13013482    
   4.57987785       1.89704800      -1.00000000       7065.97900      -1.13013482    
   4.57987785       1.89704800      -10.0000000       2793.98755      -1.23390734    
   4.57987785       1.89704800      -9.00000000       2793.98755      -1.23390734    
   4.82962894       1.29409504      -9.00000000       2793.98755      -1.23390734    
   4.82962894       1.29409504      -10.0000000       2793.98755      -1.23390734    
   4.57987785       1.89704800      -9.00000000       3561.97681      -1.24640965    
   4.57987785       1.89704800      -8.00000000       3561.97681      -1.24640965    
   4.82962894       1.29409504      -8.00000000       3561.97681      -1.24640965    
   4.82962894       1.29409504      -9.00000000       3561.97681      -1.24640965    
   4.57987785       1.89704800      -8.00000000       4070.96509      -1.23855174    
   4.57987785       1.89704800      -7.00000000       4070.96509      -1.23855174    
   4.82962894       1.29409504      -7.00000000       4070.96509      -1.23855174    
   4.82962894       1.29409504      -8.00000000       4070.96509      -1.23855174    
   4.57987785       1.89704800      -7.00000000       4492.44873      -1.22417092    
   4.57987785       1.89704800      -6.00000000       4492.44873      -1.22417092    
   4.82962894       1.29409504      -6.00000000       4492.44873      -1.22417092    
   4.82962894       1.29409504      -7.00000000       4492.44873      -1.22417092    
   4.57987785       1.89704800      -6.00000000       4883.85986      -1.20678020    
   4.57987785       1.89704800      -5.00000000       4883.85986      -1.20678020    
   4.82962894       1.29409504      -5.00000000       4883.85986      -1.20678020    
   4.82962894       1.29409504      -6.00000000       4883.85986      -1.20678020    
   4.57987785       1.89704800      -5.00000000       5279.43164      -1.18819976    
   4.57987785       1.89704800      -4.00000000       5279.43164      -1.18819976    
   4.82962894       1.29409504      -4.00000000       5279.43164      -1.18819976    
   4.82962894       1.29409504      -5.00000000       5279.43164      -1.18819976    
   4.57987785       1.89704800      -4.00000000       5704.75635      -1.16977918    
   4.57987785       1.89704800      -3.00000000       5704.75635      -1.16977918    
   4.82962894       1.29409504      -3.00000000       5704.75635      -1.16977918    
   4.82962894       1.29409504      -4.00000000       5704.75635      -1.16977918    
   4.57987785       1.89704800      -3.00000000       6182.97559      -1.15275395    
   4.57987785       1.89704800      -2.00000000       6182.97559      -1.15275395    
   4.82962894       1.29409504      -2.00000000       6182.97559      -1.15275395    
   4.82962894       1.29409504      -3.00000000       6182.97559      -1.15275395    
   4.57987785       1.89704800      -2.00000000       6744.39795      -1.13861156    
   4.57987785       1.89704800      -1.00000000       6744.39795      -1.13861156    
   4.82962894       1.29409504      -1.00000000       6744.39795      -1.13861156    
   4.82962894       1.29409504      -2.00000000       6744.39795      -1.13861156    
   4.57987785       1.89704800      -1.00000000       7430.47217      -1.12937200    
   4.57987785       1.89704800       0.00000000       7430.47217      -1.12937200    
   4.82962894       1.29409504       0.00000000       7430.47217      -1.12937200    
   4.82962894       1.29409504      -1.00000000       7430.47217      -1.12937200    
   3.53553391       3.53553391      -10.0000000       2239.64233      -1.23609281    
   3.53553391       3.53553391      -9.00000000       2239.64233      -1.23609281    
   3.93283010       3.01776695      -9.00000000       2239.64233      -1.23609281    
   3.93283010       3.01776695      -10.0000000       2239.64233      -1.23609281    
   3.53553391       3.53553391      -9.00000000       2852.55591      -1.24812198    
   3.53553391       3.53553391      -8.00000000       2852.55591      -1.24812198    
   3.93283010       3.01776695      -8.00000000       2852.55591      -1.24812198    
   3.93283010       3.01776695      -9.00000000       2852.55591      -1.24812198    
   3.53553391       3.53553391      -8.00000000       3258.14380      -1.24008977    
   3.53553391       3.53553391      -7.00000000       3258.14380      -1.24008977    
   3.93283010       3.01776695      -7.00000000       3258.14380      -1.24008977    
   3.93283010       3.01776695      -8.00000000       3258.14380      -1.24008977    
   3.53553391       3.53553391      -7.00000000       3593.95679      -1.22562599    
   3.53553391       3.53553391      -6.00000000       3593.95679      -1.22562599    
   3.93283010       3.01776695      -6.00000000       3593.95679      -1.22562599    
   3.93283010       3.01776695      -7.00000000       3593.95679      -1.22562599    
   3.53553391       3.53553391      -6.00000000       3905.74536      -1.20818329    
   3.53553391       3.53553391      -5.00000000       3905.74536      -1.20818329    
   3.93283010       3.01776695      -5.00000000       3905.74536      -1.20818329    
   3.93283010       3.01776695      -6.00000000       3905.74536      -1.20818329    
   3.53553391       3.53553391      -5.00000000       4220.85498      -1.18956363    
   3.53553391       3.53553391      -4.00000000       4220.85498      -1.18956363    
   3.93283010       3.01776695      -4.00000000       4220.85498      -1.18956363    
   3.93283010       3.01776695      -5.00000000       4220.85498      -1.18956363    
   3.53553391       3.53553391      -4.00000000       4559.66650      -1.17110085    
   3.53553391       3.53553391      -3.00000000       4559.66650      -1.17110085    
   3.93283010       3.01776695      -3.00000000       4559.66650      -1.17110085    
   3.93283010       3.01776695      -4.00000000       4559.66650      -1.17110085    
   3.53553391       3.53553391      -3.00000000       4940.60742      -1.15402341    
   3.53553391       3.53553391      -2.00000000       4940.60742      -1.15402341    
   3.93283010       3.01776695      -2.00000000       4940.60742      -1.15402341    
   3.93283010       3.01776695      -3.00000000       4940.60742      -1.15402341    
   3.53553391       3.53553391      -2.00000000       5387.86963      -1.13981473    
   3.53553391       3.53553391      -1.00000000       5387.86963      -1.13981473    
   3.93283010       3.01776695      -1.00000000       5387.86963      -1.13981473    
   3.93283010       3.01776695      -2.00000000       5387.86963      -1.13981473    
   3.53553391       3.53553391      -1.00000000       5934.27930      -1.13048458    
   3.53553391       3.53553391       0.00000000       5934.27930      -1.13048458    
   3.93283010       3.01776695       0.00000000       5934.27930      -1.13048458    
   3.93283010       3.01776695      -1.00000000       5934.27930      -1.13048458    
   3.93283010       3.01776695      -10.0000000       2446.95532      -1.23331034    
   3.93283010       3.01776695      -9.00000000       2446.95532      -1.23331034    
   4.33012676       2.50000000      -9.00000000       2446.95532      -1.23331034    
   4.33012676       2.50000000      -10.0000000       2446.95532      -1.23331034    
   3.93283010       3.01776695      -9.00000000       3120.35938      -1.24594152    
   3.93283010       3.01776695      -8.00000000       3120.35938      -1.24594152    
   4.33012676       2.50000000      -8.00000000       3120.35938      -1.24594152    
   4.33012676       2.50000000      -9.00000000       3120.35938      -1.24594152    
   3.93283010       3.01776695      -8.00000000       3566.84888      -1.23813164    
   3.93283010       3.01776695      -7.00000000       3566.84888      -1.23813164    
   4.33012676       2.50000000      -7.00000000       3566.84888      -1.23813164    
   4.33012676       2.50000000      -8.00000000       3566.84888      -1.23813164    
   3.93283010       3.01776695      -7.00000000       3936.59644      -1.22377396    
   3.93283010       3.01776695      -6.00000000       3936.59644      -1.22377396    
   4.33012676       2.50000000      -6.00000000       3936.59644      -1.22377396    
   4.33012676       2.50000000      -7.00000000       3936.59644      -1.22377396    
   3.93283010       3.01776695      -6.00000000       4279.97510      -1.20639658    
   3.93283010       3.01776695      -5.00000000       4279.97510      -1.20639658    
   4.33012676       2.50000000      -5.00000000       4279.97510      -1.20639658    
   4.33012676       2.50000000      -6.00000000       4279.97510      -1.20639658    
   3.93283010       3.01776695      -5.00000000       4627.00195      -1.18782783    
   3.93283010       3.01776695      -4.00000000       4627.00195      -1.18782783    
   4.33012676       2.50000000      -4.00000000       4627.00195      -1.18782783    
   4.33012676       2.50000000      -5.00000000       4627.00195      -1.18782783    
   3.93283010       3.01776695      -4.00000000       5000.13770      -1.16941965    
   3.93283010       3.01776695      -3.00000000       5000.13770      -1.16941965    
   4.33012676       2.50000000      -3.00000000       5000.13770      -1.16941965    
   4.33012676       2.50000000      -4.00000000       5000.13770      -1.16941965    
   3.93283010       3.01776695      -3.00000000       5419.67188      -1.15240800    
   3.93283010       3.01776695      -2.00000000       5419.67188      -1.15240800    
   4.33012676       2.50000000      -2.00000000       5419.67188      -1.15240800    
   4.33012676       2.50000000      -3.00000000       5419.67188      -1.15240800    
   3.93283010       3.01776695      -2.00000000       5912.18994      -1.13828433    
   3.93283010       3.01776695      -1.00000000       5912.18994      -1.13828433    
   4.33012676       2.50000000      -1.00000000       5912.18994      -1.13828433    
   4.33012676       2.50000000      -2.00000000       5912.18994      -1.13828433    
   3.93283010       3.01776695      -1.00000000       6514.11182      -1.12906945    
   3.93283010       3.01776695       0.00000000       6514.11182      -1.12906945    
   4.33012676       2.50000000       0.00000000       6514.11182      -1.12906945    
   4.33012676       2.50000000      -1.00000000       6514.11182      -1.12906945    
   2.50000000       4.33012676      -10.0000000       1662.99292      -1.23718989    
   2.50000000       4.33012676      -9.00000000       1662.99292      -1.23718989    
   3.01776695       3.93283010      -9.00000000       1662.99292      -1.23718989    
   3.01776695       3.93283010      -10.0000000       1662.99292      -1.23718989    
   2.50000000       4.33012676      -9.00000000       2117.08862      -1.24898303    
   2.50000000       4.33012676      -8.00000000       2117.08862      -1.24898303    
   3.01776695       3.93283010      -8.00000000       2117.08862      -1.24898303    
   3.01776695       3.93283010      -9.00000000       2117.08862      -1.24898303    
   2.50000000       4.33012676      -8.00000000       2417.34644      -1.24086380    
   2.50000000       4.33012676      -7.00000000       2417.34644      -1.24086380    
   3.01776695       3.93283010      -7.00000000       2417.34644      -1.24086380    
   3.01776695       3.93283010      -8.00000000       2417.34644      -1.24086380    
   2.50000000       4.33012676      -7.00000000       2665.93433      -1.22635877    
   2.50000000       4.33012676      -6.00000000       2665.93433      -1.22635877    
   3.01776695       3.93283010      -6.00000000       2665.93433      -1.22635877    
   3.01776695       3.93283010      -7.00000000       2665.93433      -1.22635877    
   2.50000000       4.33012676      -6.00000000       2896.71021      -1.20889103    
   2.50000000       4.33012676      -5.00000000       2896.71021      -1.20889103    
   3.01776695       3.93283010      -5.00000000       2896.71021      -1.20889103    
   3.01776695       3.93283010      -6.00000000       2896.71021      -1.20889103    
   2.50000000       4.33012676      -5.00000000       3129.95020      -1.19025123    
   2.50000000       4.33012676      -4.00000000       3129.95020      -1.19025123    
   3.01776695       3.93283010      -4.00000000       3129.95020      -1.19025123    
   3.01776695       3.93283010      -5.00000000       3129.95020      -1.19025123    
   2.50000000       4.33012676      -4.00000000       3380.73682      -1.17176759    
   2.50000000       4.33012676      -3.00000000       3380.73682      -1.17176759    
   3.01776695       3.93283010      -3.00000000       3380.73682      -1.17176759    
   3.01776695       3.93283010      -4.00000000       3380.73682      -1.17176759    
   2.50000000       4.33012676      -3.00000000       3662.69971      -1.15466475    
   2.50000000       4.33012676      -2.00000000       3662.69971      -1.15466475    
   3.01776695       3.93283010      -2.00000000       3662.69971      -1.15466475    
   3.01776695       3.93283010      -3.00000000       3662.69971      -1.15466475    
   2.50000000       4.33012676      -2.00000000       3993.76733      -1.14042199    
   2.50000000       4.33012676      -1.00000000       3993.76733      -1.14042199    
   3.01776695       3.93283010      -1.00000000       3993.76733      -1.14042199    
   3.01776695       3.93283010      -2.00000000       3993.76733      -1.14042199    
   2.50000000       4.33012676      -1.00000000       4398.17285      -1.13104606    
   2.50000000       4.33012676       0.00000000       4398.17285      -1.13104606    
   3.01776695       3.93283010       0.00000000       4398.17285      -1.13104606    
   3.01776695       3.93283010      -1.00000000       4398.17285      -1.13104606    
   3.01776695       3.93283010      -10.0000000       1933.16516      -1.23244655    
   3.01776695       3.93283010      -9.00000000       1933.16516      -1.23244655    
   3.53553391       3.53553391      -9.00000000       1933.16516      -1.23244655    
   3.53553391       3.53553391      -10.0000000       1933.16516      -1.23244655    
   3.01776695       3.93283010      -9.00000000       2466.09546      -1.24526572    
   3.01776695       3.93283010      -8.00000000       2466.09546      -1.24526572    
   3.53553391       3.53553391      -8.00000000       2466.09546      -1.24526572    
   3.53553391       3.53553391      -9.00000000       2466.09546      -1.24526572    
   3.01776695       3.93283010      -8.00000000       2819.66284      -1.23752606    
   3.01776695       3.93283010      -7.00000000       2819.66284      -1.23752606    
   3.53553391       3.53553391      -7.00000000       2819.66284      -1.23752606    
   3.53553391       3.53553391      -8.00000000       2819.66284      -1.23752606    
   3.01776695       3.93283010      -7.00000000       3112.46802      -1.22320104    
   3.01776695       3.93283010      -6.00000000       3112.46802      -1.22320104    
   3.53553391       3.53553391      -6.00000000       3112.46802      -1.22320104    
   3.53553391       3.53553391      -7.00000000       3112.46802      -1.22320104    
   3.01776695       3.93283010      -6.00000000       3384.41943      -1.20584452    
   3.01776695       3.93283010      -5.00000000       3384.41943      -1.20584452    
   3.53553391       3.53553391      -5.00000000       3384.41943      -1.20584452    
   3.53553391       3.53553391      -6.00000000       3384.41943      -1.20584452    
   3.01776695       3.93283010      -5.00000000       3659.25391      -1.18729150    
   3.01776695       3.93283010      -4.00000000       3659.25391      -1.18729150    
   3.53553391       3.53553391      -4.00000000       3659.25391      -1.18729150    
   3.53553391       3.53553391      -5.00000000       3659.25391      -1.18729150    
   3.01776695       3.93283010      -4.00000000       3954.76392      -1.16890013    
   3.01776695       3.93283010      -3.00000000       3954.76392      -1.16890013    
   3.53553391       3.53553391      -3.00000000       3954.76392      -1.16890013    
   3.53553391       3.53553391      -4.00000000       3954.76392      -1.16890013    
   3.01776695       3.93283010      -3.00000000       4287.03076      -1.15190923    
   3.01776695       3.93283010      -2.00000000       4287.03076      -1.15190923    
   3.53553391       3.53553391      -2.00000000       4287.03076      -1.15190923    
   3.53553391       3.53553391      -3.00000000       4287.03076      -1.15190923    
   3.01776695       3.93283010      -2.00000000       4677.07959      -1.13781190    
   3.01776695       3.93283010      -1.00000000       4677.07959      -1.13781190    
   3.53553391       3.53553391      -1.00000000       4677.07959      -1.13781190    
   3.53553391       3.53553391      -2.00000000       4677.07959      -1.13781190    
   3.01776695       3.93283010      -1.00000000       5153.82031      -1.12863314    
   3.01776695       3.93283010       0.00000000       5153.82031      -1.12863314    
   3.53553391       3.53553391       0.00000000       5153.82031      -1.12863314    
   3.53553391       3.53553391      -1.00000000       5153.82031      -1.12863314    
   1.29409504       4.82962894      -10.0000000       973.017029      -1.23971510    
   1.29409504       4.82962894      -9.00000000       973.017029      -1.23971510    
   1.89704800       4.57987785      -9.00000000       973.017029      -1.23971510    
   1.89704800       4.57987785      -10.0000000       973.017029      -1.23971510    
   1.29409504       4.82962894      -9.00000000       1237.34875      -1.25096869    
   1.29409504       4.82962894      -8.00000000       1237.34875      -1.25096869    
   1.89704800       4.57987785      -8.00000000       1237.34875      -1.25096869    
   1.89704800       4.57987785      -9.00000000       1237.34875      -1.25096869    
   1.29409504       4.82962894      -8.00000000       1411.81421      -1.24265063    
   1.29409504       4.82962894      -7.00000000       1411.81421      -1.24265063    
   1.89704800       4.57987785      -7.00000000       1411.81421      -1.24265063    
   1.89704800       4.57987785      -8.00000000       1411.81421      -1.24265063    
   1.29409504       4.82962894      -7.00000000       1556.23230      -1.22805154    
   1.29409504       4.82962894      -6.00000000       1556.23230      -1.22805154    
   1.89704800       4.57987785      -6.00000000       1556.23230      -1.22805154    
   1.89704800       4.57987785      -7.00000000       1556.23230      -1.22805154    
   1.29409504       4.82962894      -6.00000000       1690.27393      -1.21052527    
   1.29409504       4.82962894      -5.00000000       1690.27393      -1.21052527    
   1.89704800       4.57987785      -5.00000000       1690.27393      -1.21052527    
   1.89704800       4.57987785      -6.00000000       1690.27393      -1.21052527    
   1.29409504       4.82962894      -5.00000000       1825.74756      -1.19184124    
   1.29409504       4.82962894      -4.00000000       1825.74756      -1.19184124    
   1.89704800       4.57987785      -4.00000000       1825.74756      -1.19184124    
   1.89704800       4.57987785      -5.00000000       1825.74756      -1.19184124    
   1.29409504       4.82962894      -4.00000000       1971.41443      -1.17330849    
   1.29409504       4.82962894      -3.00000000       1971.41443      -1.17330849    
   1.89704800       4.57987785      -3.00000000       1971.41443      -1.17330849    