 VARIABLES="X" "Y" "Z" "abs(p) (Pa)" "angle(p) (rad)"
ZONE N=   1080,E =     600, F=FEPOINT, ET=QUADRILATERAL
   4.82962894       1.29409504      -10.0000000       543.206909      -2.77621579    
   4.82962894       1.29409504      -9.00000000       543.206909      -2.77621579    
   4.91481400      0.647047520      -9.00000000       543.206909      -2.77621579    
   4.91481400      0.647047520      -10.0000000       543.206909      -2.77621579    
   4.82962894       1.29409504      -9.00000000       812.499146      -2.73057747    
   4.82962894       1.29409504      -8.00000000       812.499146      -2.73057747    
   4.91481400      0.647047520      -8.00000000       812.499146      -2.73057747    
   4.91481400      0.647047520      -9.00000000       812.499146      -2.73057747    
   4.82962894       1.29409504      -8.00000000       1029.83057      -3.09747434    
   4.82962894       1.29409504      -7.00000000       1029.83057      -3.09747434    
   4.91481400      0.647047520      -7.00000000       1029.83057      -3.09747434    
   4.91481400      0.647047520      -8.00000000       1029.83057      -3.09747434    
   4.82962894       1.29409504      -7.00000000       1448.03259       2.87764597    
   4.82962894       1.29409504      -6.00000000       1448.03259       2.87764597    
   4.91481400      0.647047520      -6.00000000       1448.03259       2.87764597    
   4.91481400      0.647047520      -7.00000000       1448.03259       2.87764597    
   4.82962894       1.29409504      -6.00000000       2070.54175       2.71507525    
   4.82962894       1.29409504      -5.00000000       2070.54175       2.71507525    
   4.91481400      0.647047520      -5.00000000       2070.54175       2.71507525    
   4.91481400      0.647047520      -6.00000000       2070.54175       2.71507525    
   4.82962894       1.29409504      -5.00000000       2867.28687       2.65277052    
   4.82962894       1.29409504      -4.00000000       2867.28687       2.65277052    
   4.91481400      0.647047520      -4.00000000       2867.28687       2.65277052    
   4.91481400      0.647047520      -5.00000000       2867.28687       2.65277052    
   4.82962894       1.29409504      -4.00000000       3853.17749       2.64757252    
   4.82962894       1.29409504      -3.00000000       3853.17749       2.64757252    
   4.91481400      0.647047520      -3.00000000       3853.17749       2.64757252    
   4.91481400      0.647047520      -4.00000000       3853.17749       2.64757252    
   4.82962894       1.29409504      -3.00000000       5094.43506       2.67193055    
   4.82962894       1.29409504      -2.00000000       5094.43506       2.67193055    
   4.91481400      0.647047520      -2.00000000       5094.43506       2.67193055    
   4.91481400      0.647047520      -3.00000000       5094.43506       2.67193055    
   4.82962894       1.29409504      -2.00000000       6699.88721       2.70721626    
   4.82962894       1.29409504      -1.00000000       6699.88721       2.70721626    
   4.91481400      0.647047520      -1.00000000       6699.88721       2.70721626    
   4.91481400      0.647047520      -2.00000000       6699.88721       2.70721626    
   4.82962894       1.29409504      -1.00000000       8842.74512       2.73632503    
   4.82962894       1.29409504       0.00000000       8842.74512       2.73632503    
   4.91481400      0.647047520       0.00000000       8842.74512       2.73632503    
   4.91481400      0.647047520      -1.00000000       8842.74512       2.73632503    
   4.91481400      0.647047520      -10.0000000       220.985672      -2.51859450    
   4.91481400      0.647047520      -9.00000000       220.985672      -2.51859450    
   5.00000000       0.00000000      -9.00000000       220.985672      -2.51859450    
   5.00000000       0.00000000      -10.0000000       220.985672      -2.51859450    
   4.91481400      0.647047520      -9.00000000       303.736969      -2.62898564    
   4.91481400      0.647047520      -8.00000000       303.736969      -2.62898564    
   5.00000000       0.00000000      -8.00000000       303.736969      -2.62898564    
   5.00000000       0.00000000      -9.00000000       303.736969      -2.62898564    
   4.91481400      0.647047520      -8.00000000       366.045410      -3.10086036    
   4.91481400      0.647047520      -7.00000000       366.045410      -3.10086036    
   5.00000000       0.00000000      -7.00000000       366.045410      -3.10086036    
   5.00000000       0.00000000      -8.00000000       366.045410      -3.10086036    
   4.91481400      0.647047520      -7.00000000       525.467468       2.81102562    
   4.91481400      0.647047520      -6.00000000       525.467468       2.81102562    
   5.00000000       0.00000000      -6.00000000       525.467468       2.81102562    
   5.00000000       0.00000000      -7.00000000       525.467468       2.81102562    
   4.91481400      0.647047520      -6.00000000       768.646729       2.63004708    
   4.91481400      0.647047520      -5.00000000       768.646729       2.63004708    
   5.00000000       0.00000000      -5.00000000       768.646729       2.63004708    
   5.00000000       0.00000000      -6.00000000       768.646729       2.63004708    
   4.91481400      0.647047520      -5.00000000       1073.97607       2.56464529    
   4.91481400      0.647047520      -4.00000000       1073.97607       2.56464529    
   5.00000000       0.00000000      -4.00000000       1073.97607       2.56464529    
   5.00000000       0.00000000      -5.00000000       1073.97607       2.56464529    
   4.91481400      0.647047520      -4.00000000       1443.67310       2.56013370    
   4.91481400      0.647047520      -3.00000000       1443.67310       2.56013370    
   5.00000000       0.00000000      -3.00000000       1443.67310       2.56013370    
   5.00000000       0.00000000      -4.00000000       1443.67310       2.56013370    
   4.91481400      0.647047520      -3.00000000       1899.34448       2.58776236    
   4.91481400      0.647047520      -2.00000000       1899.34448       2.58776236    
   5.00000000       0.00000000      -2.00000000       1899.34448       2.58776236    
   5.00000000       0.00000000      -3.00000000       1899.34448       2.58776236    
   4.91481400      0.647047520      -2.00000000       2480.76147       2.62841344    
   4.91481400      0.647047520      -1.00000000       2480.76147       2.62841344    
   5.00000000       0.00000000      -1.00000000       2480.76147       2.62841344    
   5.00000000       0.00000000      -2.00000000       2480.76147       2.62841344    
   4.91481400      0.647047520      -1.00000000       3249.21533       2.66544676    
   4.91481400      0.647047520       0.00000000       3249.21533       2.66544676    
   5.00000000       0.00000000       0.00000000       3249.21533       2.66544676    
   5.00000000       0.00000000      -1.00000000       3249.21533       2.66544676    
   4.33012676       2.50000000      -10.0000000       1264.34216      -2.73166990    
   4.33012676       2.50000000      -9.00000000       1264.34216      -2.73166990    
   4.57987785       1.89704800      -9.00000000       1264.34216      -2.73166990    
   4.57987785       1.89704800      -10.0000000       1264.34216      -2.73166990    
   4.33012676       2.50000000      -9.00000000       1872.05603      -2.71411991    
   4.33012676       2.50000000      -8.00000000       1872.05603      -2.71411991    
   4.57987785       1.89704800      -8.00000000       1872.05603      -2.71411991    
   4.57987785       1.89704800      -9.00000000       1872.05603      -2.71411991    
   4.33012676       2.50000000      -8.00000000       2355.52393      -3.09799862    
   4.33012676       2.50000000      -7.00000000       2355.52393      -3.09799862    
   4.57987785       1.89704800      -7.00000000       2355.52393      -3.09799862    
   4.57987785       1.89704800      -8.00000000       2355.52393      -3.09799862    
   4.33012676       2.50000000      -7.00000000       3321.87061       2.86711478    
   4.33012676       2.50000000      -6.00000000       3321.87061       2.86711478    
   4.57987785       1.89704800      -6.00000000       3321.87061       2.86711478    
   4.57987785       1.89704800      -7.00000000       3321.87061       2.86711478    
   4.33012676       2.50000000      -6.00000000       4766.29883       2.70137978    
   4.33012676       2.50000000      -5.00000000       4766.29883       2.70137978    
   4.57987785       1.89704800      -5.00000000       4766.29883       2.70137978    
   4.57987785       1.89704800      -6.00000000       4766.29883       2.70137978    
   4.33012676       2.50000000      -5.00000000       6609.66113       2.63846850    
   4.33012676       2.50000000      -4.00000000       6609.66113       2.63846850    
   4.57987785       1.89704800      -4.00000000       6609.66113       2.63846850    
   4.57987785       1.89704800      -5.00000000       6609.66113       2.63846850    
   4.33012676       2.50000000      -4.00000000       8882.81836       2.63337922    
   4.33012676       2.50000000      -3.00000000       8882.81836       2.63337922    
   4.57987785       1.89704800      -3.00000000       8882.81836       2.63337922    
   4.57987785       1.89704800      -4.00000000       8882.81836       2.63337922    
   4.33012676       2.50000000      -3.00000000       11735.3936       2.65832353    
   4.33012676       2.50000000      -2.00000000       11735.3936       2.65832353    
   4.57987785       1.89704800      -2.00000000       11735.3936       2.65832353    
   4.57987785       1.89704800      -3.00000000       11735.3936       2.65832353    
   4.33012676       2.50000000      -2.00000000       15417.4932       2.69454956    
   4.33012676       2.50000000      -1.00000000       15417.4932       2.69454956    
   4.57987785       1.89704800      -1.00000000       15417.4932       2.69454956    
   4.57987785       1.89704800      -2.00000000       15417.4932       2.69454956    
   4.33012676       2.50000000      -1.00000000       20325.2246       2.72500443    
   4.33012676       2.50000000       0.00000000       20325.2246       2.72500443    
   4.57987785       1.89704800       0.00000000       20325.2246       2.72500443    
   4.57987785       1.89704800      -1.00000000       20325.2246       2.72500443    
   4.57987785       1.89704800      -10.0000000       962.197083      -2.66293168    
   4.57987785       1.89704800      -9.00000000       962.197083      -2.66293168    
   4.82962894       1.29409504      -9.00000000       962.197083      -2.66293168    
   4.82962894       1.29409504      -10.0000000       962.197083      -2.66293168    
   4.57987785       1.89704800      -9.00000000       1397.51453      -2.68798423    
   4.57987785       1.89704800      -8.00000000       1397.51453      -2.68798423    
   4.82962894       1.29409504      -8.00000000       1397.51453      -2.68798423    
   4.82962894       1.29409504      -9.00000000       1397.51453      -2.68798423    
   4.57987785       1.89704800      -8.00000000       1736.97290      -3.09884810    
   4.57987785       1.89704800      -7.00000000       1736.97290      -3.09884810    
   4.82962894       1.29409504      -7.00000000       1736.97290      -3.09884810    
   4.82962894       1.29409504      -8.00000000       1736.97290      -3.09884810    
   4.57987785       1.89704800      -7.00000000       2461.83130       2.85019255    
   4.57987785       1.89704800      -6.00000000       2461.83130       2.85019255    
   4.82962894       1.29409504      -6.00000000       2461.83130       2.85019255    
   4.82962894       1.29409504      -7.00000000       2461.83130       2.85019255    
   4.57987785       1.89704800      -6.00000000       3552.32983       2.67956829    
   4.57987785       1.89704800      -5.00000000       3552.32983       2.67956829    
   4.82962894       1.29409504      -5.00000000       3552.32983       2.67956829    
   4.82962894       1.29409504      -6.00000000       3552.32983       2.67956829    
   4.57987785       1.89704800      -5.00000000       4937.37939       2.61577725    
   4.57987785       1.89704800      -4.00000000       4937.37939       2.61577725    
   4.82962894       1.29409504      -4.00000000       4937.37939       2.61577725    
   4.82962894       1.29409504      -5.00000000       4937.37939       2.61577725    
   4.57987785       1.89704800      -4.00000000       6635.95508       2.61086369    
   4.57987785       1.89704800      -3.00000000       6635.95508       2.61086369    
   4.82962894       1.29409504      -3.00000000       6635.95508       2.61086369    
   4.82962894       1.29409504      -4.00000000       6635.95508       2.61086369    
   4.57987785       1.89704800      -3.00000000       8756.12695       2.63669443    
   4.57987785       1.89704800      -2.00000000       8756.12695       2.63669443    
   4.82962894       1.29409504      -2.00000000       8756.12695       2.63669443    
   4.82962894       1.29409504      -3.00000000       8756.12695       2.63669443    
   4.57987785       1.89704800      -2.00000000       11483.6768       2.67435980    
   4.57987785       1.89704800      -1.00000000       11483.6768       2.67435980    
   4.82962894       1.29409504      -1.00000000       11483.6768       2.67435980    
   4.82962894       1.29409504      -2.00000000       11483.6768       2.67435980    
   4.57987785       1.89704800      -1.00000000       15110.5293       2.70690298    
   4.57987785       1.89704800       0.00000000       15110.5293       2.70690298    
   4.82962894       1.29409504       0.00000000       15110.5293       2.70690298    
   4.82962894       1.29409504      -1.00000000       15110.5293       2.70690298    
   3.53553391       3.53553391      -10.0000000       1900.00598      -2.71893883    
   3.53553391       3.53553391      -9.00000000       1900.00598      -2.71893883    
   3.93283010       3.01776695      -9.00000000       1900.00598      -2.71893883    
   3.93283010       3.01776695      -10.0000000       1900.00598      -2.71893883    
   3.53553391       3.53553391      -9.00000000       2804.17114      -2.70935154    
   3.53553391       3.53553391      -8.00000000       2804.17114      -2.70935154    
   3.93283010       3.01776695      -8.00000000       2804.17114      -2.70935154    
   3.93283010       3.01776695      -9.00000000       2804.17114      -2.70935154    
   3.53553391       3.53553391      -8.00000000       3520.69019      -3.09815264    
   3.53553391       3.53553391      -7.00000000       3520.69019      -3.09815264    
   3.93283010       3.01776695      -7.00000000       3520.69019      -3.09815264    
   3.93283010       3.01776695      -8.00000000       3520.69019      -3.09815264    
   3.53553391       3.53553391      -7.00000000       4969.42773       2.86404657    
   3.53553391       3.53553391      -6.00000000       4969.42773       2.86404657    
   3.93283010       3.01776695      -6.00000000       4969.42773       2.86404657    
   3.93283010       3.01776695      -7.00000000       4969.42773       2.86404657    
   3.53553391       3.53553391      -6.00000000       7137.48828       2.69740582    
   3.53553391       3.53553391      -5.00000000       7137.48828       2.69740582    
   3.93283010       3.01776695      -5.00000000       7137.48828       2.69740582    
   3.93283010       3.01776695      -6.00000000       7137.48828       2.69740582    
   3.53553391       3.53553391      -5.00000000       9901.97266       2.63432765    
   3.53553391       3.53553391      -4.00000000       9901.97266       2.63432765    
   3.93283010       3.01776695      -4.00000000       9901.97266       2.63432765    
   3.93283010       3.01776695      -5.00000000       9901.97266       2.63432765    
   3.53553391       3.53553391      -4.00000000       13307.6035       2.62927032    
   3.53553391       3.53553391      -3.00000000       13307.6035       2.62927032    
   3.93283010       3.01776695      -3.00000000       13307.6035       2.62927032    
   3.93283010       3.01776695      -4.00000000       13307.6035       2.62927032    
   3.53553391       3.53553391      -3.00000000       17577.2090       2.65438008    
   3.53553391       3.53553391      -2.00000000       17577.2090       2.65438008    
   3.93283010       3.01776695      -2.00000000       17577.2090       2.65438008    
   3.93283010       3.01776695      -3.00000000       17577.2090       2.65438008    
   3.53553391       3.53553391      -2.00000000       23085.1035       2.69087386    
   3.53553391       3.53553391      -1.00000000       23085.1035       2.69087386    
   3.93283010       3.01776695      -1.00000000       23085.1035       2.69087386    
   3.93283010       3.01776695      -2.00000000       23085.1035       2.69087386    
   3.53553391       3.53553391      -1.00000000       30423.3145       2.72171307    
   3.53553391       3.53553391       0.00000000       30423.3145       2.72171307    
   3.93283010       3.01776695       0.00000000       30423.3145       2.72171307    
   3.93283010       3.01776695      -1.00000000       30423.3145       2.72171307    
   3.93283010       3.01776695      -10.0000000       1640.44165      -2.68230844    
   3.93283010       3.01776695      -9.00000000       1640.44165      -2.68230844    
   4.33012676       2.50000000      -9.00000000       1640.44165      -2.68230844    
   4.33012676       2.50000000      -10.0000000       1640.44165      -2.68230844    
   3.93283010       3.01776695      -9.00000000       2396.65161      -2.69545388    
   3.93283010       3.01776695      -8.00000000       2396.65161      -2.69545388    
   4.33012676       2.50000000      -8.00000000       2396.65161      -2.69545388    
   4.33012676       2.50000000      -9.00000000       2396.65161      -2.69545388    
   3.93283010       3.01776695      -8.00000000       2989.52905      -3.09860396    
   3.93283010       3.01776695      -7.00000000       2989.52905      -3.09860396    
   4.33012676       2.50000000      -7.00000000       2989.52905      -3.09860396    
   4.33012676       2.50000000      -8.00000000       2989.52905      -3.09860396    
   3.93283010       3.01776695      -7.00000000       4230.88379       2.85505581    
   3.93283010       3.01776695      -6.00000000       4230.88379       2.85505581    
   4.33012676       2.50000000      -6.00000000       4230.88379       2.85505581    
   4.33012676       2.50000000      -7.00000000       4230.88379       2.85505581    
   3.93283010       3.01776695      -6.00000000       6094.98975       2.68581033    
   3.93283010       3.01776695      -5.00000000       6094.98975       2.68581033    
   4.33012676       2.50000000      -5.00000000       6094.98975       2.68581033    
   4.33012676       2.50000000      -6.00000000       6094.98975       2.68581033    
   3.93283010       3.01776695      -5.00000000       8465.88574       2.62226129    
   3.93283010       3.01776695      -4.00000000       8465.88574       2.62226129    
   4.33012676       2.50000000      -4.00000000       8465.88574       2.62226129    
   4.33012676       2.50000000      -5.00000000       8465.88574       2.62226129    
   3.93283010       3.01776695      -4.00000000       11378.1025       2.61729646    
   3.93283010       3.01776695      -3.00000000       11378.1025       2.61729646    
   4.33012676       2.50000000      -3.00000000       11378.1025       2.61729646    
   4.33012676       2.50000000      -4.00000000       11378.1025       2.61729646    
   3.93283010       3.01776695      -3.00000000       15018.7637       2.64287996    
   3.93283010       3.01776695      -2.00000000       15018.7637       2.64287996    
   4.33012676       2.50000000      -2.00000000       15018.7637       2.64287996    
   4.33012676       2.50000000      -3.00000000       15018.7637       2.64287996    
   3.93283010       3.01776695      -2.00000000       19706.9395       2.68014050    
   3.93283010       3.01776695      -1.00000000       19706.9395       2.68014050    
   4.33012676       2.50000000      -1.00000000       19706.9395       2.68014050    
   4.33012676       2.50000000      -2.00000000       19706.9395       2.68014050    
   3.93283010       3.01776695      -1.00000000       25945.2207       2.71209240    
   3.93283010       3.01776695       0.00000000       25945.2207       2.71209240    
   4.33012676       2.50000000       0.00000000       25945.2207       2.71209240    
   4.33012676       2.50000000      -1.00000000       25945.2207       2.71209240    
   2.50000000       4.33012676      -10.0000000       2406.34595      -2.71224809    
   2.50000000       4.33012676      -9.00000000       2406.34595      -2.71224809    
   3.01776695       3.93283010      -9.00000000       2406.34595      -2.71224809    
   3.01776695       3.93283010      -10.0000000       2406.34595      -2.71224809    
   2.50000000       4.33012676      -9.00000000       3545.22021      -2.70683503    
   2.50000000       4.33012676      -8.00000000       3545.22021      -2.70683503    
   3.01776695       3.93283010      -8.00000000       3545.22021      -2.70683503    
   3.01776695       3.93283010      -9.00000000       3545.22021      -2.70683503    
   2.50000000       4.33012676      -8.00000000       4445.92773      -3.09823418    
   2.50000000       4.33012676      -7.00000000       4445.92773      -3.09823418    
   3.01776695       3.93283010      -7.00000000       4445.92773      -3.09823418    
   3.01776695       3.93283010      -8.00000000       4445.92773      -3.09823418    
   2.50000000       4.33012676      -7.00000000       6278.35645       2.86242318    
   2.50000000       4.33012676      -6.00000000       6278.35645       2.86242318    
   3.01776695       3.93283010      -6.00000000       6278.35645       2.86242318    
   3.01776695       3.93283010      -7.00000000       6278.35645       2.86242318    
   2.50000000       4.33012676      -6.00000000       9022.33008       2.69530702    
   2.50000000       4.33012676      -5.00000000       9022.33008       2.69530702    
   3.01776695       3.93283010      -5.00000000       9022.33008       2.69530702    
   3.01776695       3.93283010      -6.00000000       9022.33008       2.69530702    
   2.50000000       4.33012676      -5.00000000       12519.5752       2.63214111    
   2.50000000       4.33012676      -4.00000000       12519.5752       2.63214111    
   3.01776695       3.93283010      -4.00000000       12519.5752       2.63214111    
   3.01776695       3.93283010      -5.00000000       12519.5752       2.63214111    
   2.50000000       4.33012676      -4.00000000       16825.6230       2.62710047    
   2.50000000       4.33012676      -3.00000000       16825.6230       2.62710047    
   3.01776695       3.93283010      -3.00000000       16825.6230       2.62710047    
   3.01776695       3.93283010      -4.00000000       16825.6230       2.62710047    
   2.50000000       4.33012676      -3.00000000       22221.3262       2.65229726    
   2.50000000       4.33012676      -2.00000000       22221.3262       2.65229726    
   3.01776695       3.93283010      -2.00000000       22221.3262       2.65229726    
   3.01776695       3.93283010      -3.00000000       22221.3262       2.65229726    
   2.50000000       4.33012676      -2.00000000       29179.6797       2.68893170    
   2.50000000       4.33012676      -1.00000000       29179.6797       2.68893170    
   3.01776695       3.93283010      -1.00000000       29179.6797       2.68893170    
   3.01776695       3.93283010      -2.00000000       29179.6797       2.68893170    
   2.50000000       4.33012676      -1.00000000       38448.2852       2.71997356    
   2.50000000       4.33012676       0.00000000       38448.2852       2.71997356    
   3.01776695       3.93283010       0.00000000       38448.2852       2.71997356    
   3.01776695       3.93283010      -1.00000000       38448.2852       2.71997356    
   3.01776695       3.93283010      -10.0000000       2207.15454      -2.69075584    
   3.01776695       3.93283010      -9.00000000       2207.15454      -2.69075584    
   3.53553391       3.53553391      -9.00000000       2207.15454      -2.69075584    
   3.53553391       3.53553391      -10.0000000       2207.15454      -2.69075584    
   3.01776695       3.93283010      -9.00000000       3232.51636      -2.69868517    
   3.01776695       3.93283010      -8.00000000       3232.51636      -2.69868517    
   3.53553391       3.53553391      -8.00000000       3232.51636      -2.69868517    
   3.53553391       3.53553391      -9.00000000       3232.51636      -2.69868517    
   3.01776695       3.93283010      -8.00000000       4038.35620      -3.09849882    
   3.01776695       3.93283010      -7.00000000       4038.35620      -3.09849882    
   3.53553391       3.53553391      -7.00000000       4038.35620      -3.09849882    
   3.53553391       3.53553391      -8.00000000       4038.35620      -3.09849882    
   3.01776695       3.93283010      -7.00000000       5711.64355       2.85715151    
   3.01776695       3.93283010      -6.00000000       5711.64355       2.85715151    
   3.53553391       3.53553391      -6.00000000       5711.64355       2.85715151    
   3.53553391       3.53553391      -7.00000000       5711.64355       2.85715151    
   3.01776695       3.93283010      -6.00000000       8222.38379       2.68850732    
   3.01776695       3.93283010      -5.00000000       8222.38379       2.68850732    
   3.53553391       3.53553391      -5.00000000       8222.38379       2.68850732    
   3.53553391       3.53553391      -6.00000000       8222.38379       2.68850732    
   3.01776695       3.93283010      -5.00000000       11417.6074       2.62506485    
   3.01776695       3.93283010      -4.00000000       11417.6074       2.62506485    
   3.53553391       3.53553391      -4.00000000       11417.6074       2.62506485    
   3.53553391       3.53553391      -5.00000000       11417.6074       2.62506485    
   3.01776695       3.93283010      -4.00000000       15345.0381       2.62007880    
   3.01776695       3.93283010      -3.00000000       15345.0381       2.62007880    
   3.53553391       3.53553391      -3.00000000       15345.0381       2.62007880    
   3.53553391       3.53553391      -4.00000000       15345.0381       2.62007880    
   3.01776695       3.93283010      -3.00000000       20258.1328       2.64555359    
   3.01776695       3.93283010      -2.00000000       20258.1328       2.64555359    
   3.53553391       3.53553391      -2.00000000       20258.1328       2.64555359    
   3.53553391       3.53553391      -3.00000000       20258.1328       2.64555359    
   3.01776695       3.93283010      -2.00000000       26587.4980       2.68263817    
   3.01776695       3.93283010      -1.00000000       26587.4980       2.68263817    
   3.53553391       3.53553391      -1.00000000       26587.4980       2.68263817    
   3.53553391       3.53553391      -2.00000000       26587.4980       2.68263817    
   3.01776695       3.93283010      -1.00000000       35012.0820       2.71433282    
   3.01776695       3.93283010       0.00000000       35012.0820       2.71433282    
   3.53553391       3.53553391       0.00000000       35012.0820       2.71433282    
   3.53553391       3.53553391      -1.00000000       35012.0820       2.71433282    
   1.29409504       4.82962894      -10.0000000       2748.76978      -2.70762348    
   1.29409504       4.82962894      -9.00000000       2748.76978      -2.70762348    
   1.89704800       4.57987785      -9.00000000       2748.76978      -2.70762348    
   1.89704800       4.57987785      -10.0000000       2748.76978      -2.70762348    
   1.29409504       4.82962894      -9.00000000       4044.68701      -2.70509052    
   1.29409504       4.82962894      -8.00000000       4044.68701      -2.70509052    
   1.89704800       4.57987785      -8.00000000       4044.68701      -2.70509052    
   1.89704800       4.57987785      -9.00000000       4044.68701      -2.70509052    
   1.29409504       4.82962894      -8.00000000       5068.18457      -3.09829021    
   1.29409504       4.82962894      -7.00000000       5068.18457      -3.09829021    
   1.89704800       4.57987785      -7.00000000       5068.18457      -3.09829021    
   1.89704800       4.57987785      -8.00000000       5068.18457      -3.09829021    
   1.29409504       4.82962894      -7.00000000       7159.43506       2.86129618    
   1.29409504       4.82962894      -6.00000000       7159.43506       2.86129618    
   1.89704800       4.57987785      -6.00000000       7159.43506       2.86129618    
   1.89704800       4.57987785      -7.00000000       7159.43506       2.86129618    
   1.29409504       4.82962894      -6.00000000       10292.3428       2.69385147    
   1.29409504       4.82962894      -5.00000000       10292.3428       2.69385147    
   1.89704800       4.57987785      -5.00000000       10292.3428       2.69385147    
   1.89704800       4.57987785      -6.00000000       10292.3428       2.69385147    
   1.29409504       4.82962894      -5.00000000       14284.0186       2.63062549    
   1.29409504       4.82962894      -4.00000000       14284.0186       2.63062549    
   1.89704800       4.57987785      -4.00000000       14284.0186       2.63062549    
   1.89704800       4.57987785      -5.00000000       14284.0186       2.63062549    
   1.29409504       4.82962894      -4.00000000       19197.0508       2.62559676    
   1.29409504       4.82962894      -3.00000000       19197.0508       2.62559676    
   1.89704800       4.57987785      -3.00000000       19197.0508       2.62559676    