 VARIABLES="X" "Y" "Z" "abs(p) (Pa)" "angle(p) (rad)"
ZONE N=   1080,E =     600, F=FEPOINT, ET=QUADRILATERAL
   4.82962894       1.29409504      -10.0000000       502.092896      -1.12956464    
   4.82962894       1.29409504      -9.00000000       502.092896      -1.12956464    
   4.91481400      0.647047520      -9.00000000       502.092896      -1.12956464    
   4.91481400      0.647047520      -10.0000000       502.092896      -1.12956464    
   4.82962894       1.29409504      -9.00000000       654.412170      -1.11422145    
   4.82962894       1.29409504      -8.00000000       654.412170      -1.11422145    
   4.91481400      0.647047520      -8.00000000       654.412170      -1.11422145    
   4.91481400      0.647047520      -9.00000000       654.412170      -1.11422145    
   4.82962894       1.29409504      -8.00000000       749.563110      -1.05873930    
   4.82962894       1.29409504      -7.00000000       749.563110      -1.05873930    
   4.91481400      0.647047520      -7.00000000       749.563110      -1.05873930    
   4.91481400      0.647047520      -8.00000000       749.563110      -1.05873930    
   4.82962894       1.29409504      -7.00000000       830.260376     -0.984478533    
   4.82962894       1.29409504      -6.00000000       830.260376     -0.984478533    
   4.91481400      0.647047520      -6.00000000       830.260376     -0.984478533    
   4.91481400      0.647047520      -7.00000000       830.260376     -0.984478533    
   4.82962894       1.29409504      -6.00000000       915.108765     -0.898548067    
   4.82962894       1.29409504      -5.00000000       915.108765     -0.898548067    
   4.91481400      0.647047520      -5.00000000       915.108765     -0.898548067    
   4.91481400      0.647047520      -6.00000000       915.108765     -0.898548067    
   4.82962894       1.29409504      -5.00000000       1017.90985     -0.807490468    
   4.82962894       1.29409504      -4.00000000       1017.90985     -0.807490468    
   4.91481400      0.647047520      -4.00000000       1017.90985     -0.807490468    
   4.91481400      0.647047520      -5.00000000       1017.90985     -0.807490468    
   4.82962894       1.29409504      -4.00000000       1151.78027     -0.718981802    
   4.82962894       1.29409504      -3.00000000       1151.78027     -0.718981802    
   4.91481400      0.647047520      -3.00000000       1151.78027     -0.718981802    
   4.91481400      0.647047520      -4.00000000       1151.78027     -0.718981802    
   4.82962894       1.29409504      -3.00000000       1329.67859     -0.641010880    
   4.82962894       1.29409504      -2.00000000       1329.67859     -0.641010880    
   4.91481400      0.647047520      -2.00000000       1329.67859     -0.641010880    
   4.91481400      0.647047520      -3.00000000       1329.67859     -0.641010880    
   4.82962894       1.29409504      -2.00000000       1565.64038     -0.580786407    
   4.82962894       1.29409504      -1.00000000       1565.64038     -0.580786407    
   4.91481400      0.647047520      -1.00000000       1565.64038     -0.580786407    
   4.91481400      0.647047520      -2.00000000       1565.64038     -0.580786407    
   4.82962894       1.29409504      -1.00000000       1878.57178     -0.545390487    
   4.82962894       1.29409504       0.00000000       1878.57178     -0.545390487    
   4.91481400      0.647047520       0.00000000       1878.57178     -0.545390487    
   4.91481400      0.647047520      -1.00000000       1878.57178     -0.545390487    
   4.91481400      0.647047520      -10.0000000       204.153641      -1.19009590    
   4.91481400      0.647047520      -9.00000000       204.153641      -1.19009590    
   5.00000000       0.00000000      -9.00000000       204.153641      -1.19009590    
   5.00000000       0.00000000      -10.0000000       204.153641      -1.19009590    
   4.91481400      0.647047520      -9.00000000       259.548187      -1.16490757    
   4.91481400      0.647047520      -8.00000000       259.548187      -1.16490757    
   5.00000000       0.00000000      -8.00000000       259.548187      -1.16490757    
   5.00000000       0.00000000      -9.00000000       259.548187      -1.16490757    
   4.91481400      0.647047520      -8.00000000       292.739380      -1.10878718    
   4.91481400      0.647047520      -7.00000000       292.739380      -1.10878718    
   5.00000000       0.00000000      -7.00000000       292.739380      -1.10878718    
   5.00000000       0.00000000      -8.00000000       292.739380      -1.10878718    
   4.91481400      0.647047520      -7.00000000       320.406281      -1.03621686    
   4.91481400      0.647047520      -6.00000000       320.406281      -1.03621686    
   5.00000000       0.00000000      -6.00000000       320.406281      -1.03621686    
   5.00000000       0.00000000      -7.00000000       320.406281      -1.03621686    
   4.91481400      0.647047520      -6.00000000       349.138702     -0.952017963    
   4.91481400      0.647047520      -5.00000000       349.138702     -0.952017963    
   5.00000000       0.00000000      -5.00000000       349.138702     -0.952017963    
   5.00000000       0.00000000      -6.00000000       349.138702     -0.952017963    
   4.91481400      0.647047520      -5.00000000       383.995331     -0.861554086    
   4.91481400      0.647047520      -4.00000000       383.995331     -0.861554086    
   5.00000000       0.00000000      -4.00000000       383.995331     -0.861554086    
   5.00000000       0.00000000      -5.00000000       383.995331     -0.861554086    
   4.91481400      0.647047520      -4.00000000       429.753662     -0.771641374    
   4.91481400      0.647047520      -3.00000000       429.753662     -0.771641374    
   5.00000000       0.00000000      -3.00000000       429.753662     -0.771641374    
   5.00000000       0.00000000      -4.00000000       429.753662     -0.771641374    
   4.91481400      0.647047520      -3.00000000       491.177002     -0.690177739    
   4.91481400      0.647047520      -2.00000000       491.177002     -0.690177739    
   5.00000000       0.00000000      -2.00000000       491.177002     -0.690177739    
   5.00000000       0.00000000      -3.00000000       491.177002     -0.690177739    
   4.91481400      0.647047520      -2.00000000       573.567566     -0.624848962    
   4.91481400      0.647047520      -1.00000000       573.567566     -0.624848962    
   5.00000000       0.00000000      -1.00000000       573.567566     -0.624848962    
   5.00000000       0.00000000      -2.00000000       573.567566     -0.624848962    
   4.91481400      0.647047520      -1.00000000       683.465332     -0.583240390    
   4.91481400      0.647047520       0.00000000       683.465332     -0.583240390    
   5.00000000       0.00000000       0.00000000       683.465332     -0.583240390    
   5.00000000       0.00000000      -1.00000000       683.465332     -0.583240390    
   4.33012676       2.50000000      -10.0000000       1173.81311      -1.14008570    
   4.33012676       2.50000000      -9.00000000       1173.81311      -1.14008570    
   4.57987785       1.89704800      -9.00000000       1173.81311      -1.14008570    
   4.57987785       1.89704800      -10.0000000       1173.81311      -1.14008570    
   4.33012676       2.50000000      -9.00000000       1523.49915      -1.12285256    
   4.33012676       2.50000000      -8.00000000       1523.49915      -1.12285256    
   4.57987785       1.89704800      -8.00000000       1523.49915      -1.12285256    
   4.57987785       1.89704800      -9.00000000       1523.49915      -1.12285256    
   4.33012676       2.50000000      -8.00000000       1740.48010      -1.06715333    
   4.33012676       2.50000000      -7.00000000       1740.48010      -1.06715333    
   4.57987785       1.89704800      -7.00000000       1740.48010      -1.06715333    
   4.57987785       1.89704800      -8.00000000       1740.48010      -1.06715333    
   4.33012676       2.50000000      -7.00000000       1923.98926     -0.993091345    
   4.33012676       2.50000000      -6.00000000       1923.98926     -0.993091345    
   4.57987785       1.89704800      -6.00000000       1923.98926     -0.993091345    
   4.57987785       1.89704800      -7.00000000       1923.98926     -0.993091345    
   4.33012676       2.50000000      -6.00000000       2116.57642     -0.907363594    
   4.33012676       2.50000000      -5.00000000       2116.57642     -0.907363594    
   4.57987785       1.89704800      -5.00000000       2116.57642     -0.907363594    
   4.57987785       1.89704800      -6.00000000       2116.57642     -0.907363594    
   4.33012676       2.50000000      -5.00000000       2349.97266     -0.816322505    
   4.33012676       2.50000000      -4.00000000       2349.97266     -0.816322505    
   4.57987785       1.89704800      -4.00000000       2349.97266     -0.816322505    
   4.57987785       1.89704800      -5.00000000       2349.97266     -0.816322505    
   4.33012676       2.50000000      -4.00000000       2654.32324     -0.727504373    
   4.33012676       2.50000000      -3.00000000       2654.32324     -0.727504373    
   4.57987785       1.89704800      -3.00000000       2654.32324     -0.727504373    
   4.57987785       1.89704800      -4.00000000       2654.32324     -0.727504373    
   4.33012676       2.50000000      -3.00000000       3059.42090     -0.648900449    
   4.33012676       2.50000000      -2.00000000       3059.42090     -0.648900449    
   4.57987785       1.89704800      -2.00000000       3059.42090     -0.648900449    
   4.57987785       1.89704800      -3.00000000       3059.42090     -0.648900449    
   4.33012676       2.50000000      -2.00000000       3597.68701     -0.587808907    
   4.33012676       2.50000000      -1.00000000       3597.68701     -0.587808907    
   4.57987785       1.89704800      -1.00000000       3597.68701     -0.587808907    
   4.57987785       1.89704800      -2.00000000       3597.68701     -0.587808907    
   4.33012676       2.50000000      -1.00000000       4312.17432     -0.551388919    
   4.33012676       2.50000000       0.00000000       4312.17432     -0.551388919    
   4.57987785       1.89704800       0.00000000       4312.17432     -0.551388919    
   4.57987785       1.89704800      -1.00000000       4312.17432     -0.551388919    
   4.57987785       1.89704800      -10.0000000       896.081177      -1.15619373    
   4.57987785       1.89704800      -9.00000000       896.081177      -1.15619373    
   4.82962894       1.29409504      -9.00000000       896.081177      -1.15619373    
   4.82962894       1.29409504      -10.0000000       896.081177      -1.15619373    
   4.57987785       1.89704800      -9.00000000       1155.45520      -1.13620830    
   4.57987785       1.89704800      -8.00000000       1155.45520      -1.13620830    
   4.82962894       1.29409504      -8.00000000       1155.45520      -1.13620830    
   4.82962894       1.29409504      -9.00000000       1155.45520      -1.13620830    
   4.57987785       1.89704800      -8.00000000       1314.69019      -1.08026004    
   4.57987785       1.89704800      -7.00000000       1314.69019      -1.08026004    
   4.82962894       1.29409504      -7.00000000       1314.69019      -1.08026004    
   4.82962894       1.29409504      -8.00000000       1314.69019      -1.08026004    
   4.57987785       1.89704800      -7.00000000       1448.76257      -1.00657523    
   4.57987785       1.89704800      -6.00000000       1448.76257      -1.00657523    
   4.82962894       1.29409504      -6.00000000       1448.76257      -1.00657523    
   4.82962894       1.29409504      -7.00000000       1448.76257      -1.00657523    
   4.57987785       1.89704800      -6.00000000       1589.03613     -0.921234846    
   4.57987785       1.89704800      -5.00000000       1589.03613     -0.921234846    
   4.82962894       1.29409504      -5.00000000       1589.03613     -0.921234846    
   4.82962894       1.29409504      -6.00000000       1589.03613     -0.921234846    
   4.57987785       1.89704800      -5.00000000       1759.10120     -0.830281556    
   4.57987785       1.89704800      -4.00000000       1759.10120     -0.830281556    
   4.82962894       1.29409504      -4.00000000       1759.10120     -0.830281556    
   4.82962894       1.29409504      -5.00000000       1759.10120     -0.830281556    
   4.57987785       1.89704800      -4.00000000       1981.33105     -0.741039634    
   4.57987785       1.89704800      -3.00000000       1981.33105     -0.741039634    
   4.82962894       1.29409504      -3.00000000       1981.33105     -0.741039634    
   4.82962894       1.29409504      -4.00000000       1981.33105     -0.741039634    
   4.57987785       1.89704800      -3.00000000       2277.88892     -0.661485612    
   4.57987785       1.89704800      -2.00000000       2277.88892     -0.661485612    
   4.82962894       1.29409504      -2.00000000       2277.88892     -0.661485612    
   4.82962894       1.29409504      -3.00000000       2277.88892     -0.661485612    
   4.57987785       1.89704800      -2.00000000       2673.06201     -0.599046588    
   4.57987785       1.89704800      -1.00000000       2673.06201     -0.599046588    
   4.82962894       1.29409504      -1.00000000       2673.06201     -0.599046588    
   4.82962894       1.29409504      -2.00000000       2673.06201     -0.599046588    
   4.57987785       1.89704800      -1.00000000       3198.36694     -0.561015189    
   4.57987785       1.89704800       0.00000000       3198.36694     -0.561015189    
   4.82962894       1.29409504       0.00000000       3198.36694     -0.561015189    
   4.82962894       1.29409504      -1.00000000       3198.36694     -0.561015189    
   3.53553391       3.53553391      -10.0000000       1765.57629      -1.14307809    
   3.53553391       3.53553391      -9.00000000       1765.57629      -1.14307809    
   3.93283010       3.01776695      -9.00000000       1765.57629      -1.14307809    
   3.93283010       3.01776695      -10.0000000       1765.57629      -1.14307809    
   3.53553391       3.53553391      -9.00000000       2288.79370      -1.12532067    
   3.53553391       3.53553391      -8.00000000       2288.79370      -1.12532067    
   3.93283010       3.01776695      -8.00000000       2288.79370      -1.12532067    
   3.93283010       3.01776695      -9.00000000       2288.79370      -1.12532067    
   3.53553391       3.53553391      -8.00000000       2612.82031      -1.06956720    
   3.53553391       3.53553391      -7.00000000       2612.82031      -1.06956720    
   3.93283010       3.01776695      -7.00000000       2612.82031      -1.06956720    
   3.93283010       3.01776695      -8.00000000       2612.82031      -1.06956720    
   3.53553391       3.53553391      -7.00000000       2886.64014     -0.995568275    
   3.53553391       3.53553391      -6.00000000       2886.64014     -0.995568275    
   3.93283010       3.01776695      -6.00000000       2886.64014     -0.995568275    
   3.93283010       3.01776695      -7.00000000       2886.64014     -0.995568275    
   3.53553391       3.53553391      -6.00000000       3173.84692     -0.909905910    
   3.53553391       3.53553391      -5.00000000       3173.84692     -0.909905910    
   3.93283010       3.01776695      -5.00000000       3173.84692     -0.909905910    
   3.93283010       3.01776695      -6.00000000       3173.84692     -0.909905910    
   3.53553391       3.53553391      -5.00000000       3521.94312     -0.818874419    
   3.53553391       3.53553391      -4.00000000       3521.94312     -0.818874419    
   3.93283010       3.01776695      -4.00000000       3521.94312     -0.818874419    
   3.93283010       3.01776695      -5.00000000       3521.94312     -0.818874419    
   3.53553391       3.53553391      -4.00000000       3976.03223     -0.729973435    
   3.53553391       3.53553391      -3.00000000       3976.03223     -0.729973435    
   3.93283010       3.01776695      -3.00000000       3976.03223     -0.729973435    
   3.93283010       3.01776695      -4.00000000       3976.03223     -0.729973435    
   3.53553391       3.53553391      -3.00000000       4580.71973     -0.651191890    
   3.53553391       3.53553391      -2.00000000       4580.71973     -0.651191890    
   3.93283010       3.01776695      -2.00000000       4580.71973     -0.651191890    
   3.93283010       3.01776695      -3.00000000       4580.71973     -0.651191890    
   3.53553391       3.53553391      -2.00000000       5384.61133     -0.589849710    
   3.53553391       3.53553391      -1.00000000       5384.61133     -0.589849710    
   3.93283010       3.01776695      -1.00000000       5384.61133     -0.589849710    
   3.93283010       3.01776695      -2.00000000       5384.61133     -0.589849710    
   3.53553391       3.53553391      -1.00000000       6451.95361     -0.553135633    
   3.53553391       3.53553391       0.00000000       6451.95361     -0.553135633    
   3.93283010       3.01776695       0.00000000       6451.95361     -0.553135633    
   3.93283010       3.01776695      -1.00000000       6451.95361     -0.553135633    
   3.93283010       3.01776695      -10.0000000       1527.07727      -1.15166175    
   3.93283010       3.01776695      -9.00000000       1527.07727      -1.15166175    
   4.33012676       2.50000000      -9.00000000       1527.07727      -1.15166175    
   4.33012676       2.50000000      -10.0000000       1527.07727      -1.15166175    
   3.93283010       3.01776695      -9.00000000       1972.74146      -1.13243365    
   3.93283010       3.01776695      -8.00000000       1972.74146      -1.13243365    
   4.33012676       2.50000000      -8.00000000       1972.74146      -1.13243365    
   4.33012676       2.50000000      -9.00000000       1972.74146      -1.13243365    
   3.93283010       3.01776695      -8.00000000       2247.17944      -1.07654464    
   3.93283010       3.01776695      -7.00000000       2247.17944      -1.07654464    
   4.33012676       2.50000000      -7.00000000       2247.17944      -1.07654464    
   4.33012676       2.50000000      -8.00000000       2247.17944      -1.07654464    
   3.93283010       3.01776695      -7.00000000       2478.54907      -1.00274408    
   3.93283010       3.01776695      -6.00000000       2478.54907      -1.00274408    
   4.33012676       2.50000000      -6.00000000       2478.54907      -1.00274408    
   4.33012676       2.50000000      -7.00000000       2478.54907      -1.00274408    
   3.93283010       3.01776695      -6.00000000       2720.83252     -0.917285442    
   3.93283010       3.01776695      -5.00000000       2720.83252     -0.917285442    
   4.33012676       2.50000000      -5.00000000       2720.83252     -0.917285442    
   4.33012676       2.50000000      -6.00000000       2720.83252     -0.917285442    
   3.93283010       3.01776695      -5.00000000       3014.54077     -0.826299191    
   3.93283010       3.01776695      -4.00000000       3014.54077     -0.826299191    
   4.33012676       2.50000000      -4.00000000       3014.54077     -0.826299191    
   4.33012676       2.50000000      -5.00000000       3014.54077     -0.826299191    
   3.93283010       3.01776695      -4.00000000       3398.11206     -0.737169623    
   3.93283010       3.01776695      -3.00000000       3398.11206     -0.737169623    
   4.33012676       2.50000000      -3.00000000       3398.11206     -0.737169623    
   4.33012676       2.50000000      -4.00000000       3398.11206     -0.737169623    
   3.93283010       3.01776695      -3.00000000       3909.59375     -0.657881200    
   3.93283010       3.01776695      -2.00000000       3909.59375     -0.657881200    
   4.33012676       2.50000000      -2.00000000       3909.59375     -0.657881200    
   4.33012676       2.50000000      -3.00000000       3909.59375     -0.657881200    
   3.93283010       3.01776695      -2.00000000       4590.61084     -0.595822215    
   3.93283010       3.01776695      -1.00000000       4590.61084     -0.595822215    
   4.33012676       2.50000000      -1.00000000       4590.61084     -0.595822215    
   4.33012676       2.50000000      -2.00000000       4590.61084     -0.595822215    
   3.93283010       3.01776695      -1.00000000       5495.49756     -0.558250189    
   3.93283010       3.01776695       0.00000000       5495.49756     -0.558250189    
   4.33012676       2.50000000       0.00000000       5495.49756     -0.558250189    
   4.33012676       2.50000000      -1.00000000       5495.49756     -0.558250189    
   2.50000000       4.33012676      -10.0000000       2237.02661      -1.14464808    
   2.50000000       4.33012676      -9.00000000       2237.02661      -1.14464808    
   3.01776695       3.93283010      -9.00000000       2237.02661      -1.14464808    
   3.01776695       3.93283010      -10.0000000       2237.02661      -1.14464808    
   2.50000000       4.33012676      -9.00000000       2898.11743      -1.12661815    
   2.50000000       4.33012676      -8.00000000       2898.11743      -1.12661815    
   3.01776695       3.93283010      -8.00000000       2898.11743      -1.12661815    
   3.01776695       3.93283010      -9.00000000       2898.11743      -1.12661815    
   2.50000000       4.33012676      -8.00000000       3307.11060      -1.07083762    
   2.50000000       4.33012676      -7.00000000       3307.11060      -1.07083762    
   3.01776695       3.93283010      -7.00000000       3307.11060      -1.07083762    
   3.01776695       3.93283010      -8.00000000       3307.11060      -1.07083762    
   2.50000000       4.33012676      -7.00000000       3652.58276     -0.996872902    
   2.50000000       4.33012676      -6.00000000       3652.58276     -0.996872902    
   3.01776695       3.93283010      -6.00000000       3652.58276     -0.996872902    
   3.01776695       3.93283010      -7.00000000       3652.58276     -0.996872902    
   2.50000000       4.33012676      -6.00000000       4014.83862     -0.911246061    
   2.50000000       4.33012676      -5.00000000       4014.83862     -0.911246061    
   3.01776695       3.93283010      -5.00000000       4014.83862     -0.911246061    
   3.01776695       3.93283010      -6.00000000       4014.83862     -0.911246061    
   2.50000000       4.33012676      -5.00000000       4453.91162     -0.820220232    
   2.50000000       4.33012676      -4.00000000       4453.91162     -0.820220232    
   3.01776695       3.93283010      -4.00000000       4453.91162     -0.820220232    
   3.01776695       3.93283010      -5.00000000       4453.91162     -0.820220232    
   2.50000000       4.33012676      -4.00000000       5026.79248     -0.731276929    
   2.50000000       4.33012676      -3.00000000       5026.79248     -0.731276929    
   3.01776695       3.93283010      -3.00000000       5026.79248     -0.731276929    
   3.01776695       3.93283010      -4.00000000       5026.79248     -0.731276929    
   2.50000000       4.33012676      -3.00000000       5789.86426     -0.652401805    
   2.50000000       4.33012676      -2.00000000       5789.86426     -0.652401805    
   3.01776695       3.93283010      -2.00000000       5789.86426     -0.652401805    
   3.01776695       3.93283010      -3.00000000       5789.86426     -0.652401805    
   2.50000000       4.33012676      -2.00000000       6804.58740     -0.590930045    
   2.50000000       4.33012676      -1.00000000       6804.58740     -0.590930045    
   3.01776695       3.93283010      -1.00000000       6804.58740     -0.590930045    
   3.01776695       3.93283010      -2.00000000       6804.58740     -0.590930045    
   2.50000000       4.33012676      -1.00000000       8152.05029     -0.554059863    
   2.50000000       4.33012676       0.00000000       8152.05029     -0.554059863    
   3.01776695       3.93283010       0.00000000       8152.05029     -0.554059863    
   3.01776695       3.93283010      -1.00000000       8152.05029     -0.554059863    
   3.01776695       3.93283010      -10.0000000       2054.01978      -1.14968479    
   3.01776695       3.93283010      -9.00000000       2054.01978      -1.14968479    
   3.53553391       3.53553391      -9.00000000       2054.01978      -1.14968479    
   3.53553391       3.53553391      -10.0000000       2054.01978      -1.14968479    
   3.01776695       3.93283010      -9.00000000       2655.60156      -1.13079095    
   3.01776695       3.93283010      -8.00000000       2655.60156      -1.13079095    
   3.53553391       3.53553391      -8.00000000       2655.60156      -1.13079095    
   3.53553391       3.53553391      -9.00000000       2655.60156      -1.13079095    
   3.01776695       3.93283010      -8.00000000       3026.54126      -1.07493091    
   3.01776695       3.93283010      -7.00000000       3026.54126      -1.07493091    
   3.53553391       3.53553391      -7.00000000       3026.54126      -1.07493091    
   3.53553391       3.53553391      -8.00000000       3026.54126      -1.07493091    
   3.01776695       3.93283010      -7.00000000       3339.44043      -1.00108242    
   3.01776695       3.93283010      -6.00000000       3339.44043      -1.00108242    
   3.53553391       3.53553391      -6.00000000       3339.44043      -1.00108242    
   3.53553391       3.53553391      -7.00000000       3339.44043      -1.00108242    
   3.01776695       3.93283010      -6.00000000       3667.22437     -0.915574133    
   3.01776695       3.93283010      -5.00000000       3667.22437     -0.915574133    
   3.53553391       3.53553391      -5.00000000       3667.22437     -0.915574133    
   3.53553391       3.53553391      -6.00000000       3667.22437     -0.915574133    
   3.01776695       3.93283010      -5.00000000       4064.56421     -0.824575365    
   3.01776695       3.93283010      -4.00000000       4064.56421     -0.824575365    
   3.53553391       3.53553391      -4.00000000       4064.56421     -0.824575365    
   3.53553391       3.53553391      -5.00000000       4064.56421     -0.824575365    
   3.01776695       3.93283010      -4.00000000       4583.33740     -0.735497177    
   3.01776695       3.93283010      -3.00000000       4583.33740     -0.735497177    
   3.53553391       3.53553391      -3.00000000       4583.33740     -0.735497177    
   3.53553391       3.53553391      -4.00000000       4583.33740     -0.735497177    
   3.01776695       3.93283010      -3.00000000       5274.89160     -0.656324744    
   3.01776695       3.93283010      -2.00000000       5274.89160     -0.656324744    
   3.53553391       3.53553391      -2.00000000       5274.89160     -0.656324744    
   3.53553391       3.53553391      -3.00000000       5274.89160     -0.656324744    
   3.01776695       3.93283010      -2.00000000       6195.32617     -0.594431341    
   3.01776695       3.93283010      -1.00000000       6195.32617     -0.594431341    
   3.53553391       3.53553391      -1.00000000       6195.32617     -0.594431341    
   3.53553391       3.53553391      -2.00000000       6195.32617     -0.594431341    
   3.01776695       3.93283010      -1.00000000       7418.13525     -0.557057977    
   3.01776695       3.93283010       0.00000000       7418.13525     -0.557057977    
   3.53553391       3.53553391       0.00000000       7418.13525     -0.557057977    
   3.53553391       3.53553391      -1.00000000       7418.13525     -0.557057977    
   1.29409504       4.82962894      -10.0000000       2556.03174      -1.14573264    
   1.29409504       4.82962894      -9.00000000       2556.03174      -1.14573264    
   1.89704800       4.57987785      -9.00000000       2556.03174      -1.14573264    
   1.89704800       4.57987785      -10.0000000       2556.03174      -1.14573264    
   1.29409504       4.82962894      -9.00000000       3309.94287      -1.12751544    
   1.29409504       4.82962894      -8.00000000       3309.94287      -1.12751544    
   1.89704800       4.57987785      -8.00000000       3309.94287      -1.12751544    
   1.89704800       4.57987785      -9.00000000       3309.94287      -1.12751544    
   1.29409504       4.82962894      -8.00000000       3776.02759      -1.07171667    
   1.29409504       4.82962894      -7.00000000       3776.02759      -1.07171667    
   1.89704800       4.57987785      -7.00000000       3776.02759      -1.07171667    
   1.89704800       4.57987785      -8.00000000       3776.02759      -1.07171667    
   1.29409504       4.82962894      -7.00000000       4169.60986     -0.997776330    
   1.29409504       4.82962894      -6.00000000       4169.60986     -0.997776330    
   1.89704800       4.57987785      -6.00000000       4169.60986     -0.997776330    
   1.89704800       4.57987785      -7.00000000       4169.60986     -0.997776330    
   1.29409504       4.82962894      -6.00000000       4582.22803     -0.912174284    
   1.29409504       4.82962894      -5.00000000       4582.22803     -0.912174284    
   1.89704800       4.57987785      -5.00000000       4582.22803     -0.912174284    
   1.89704800       4.57987785      -6.00000000       4582.22803     -0.912174284    
   1.29409504       4.82962894      -5.00000000       5082.35352     -0.821153998    
   1.29409504       4.82962894      -4.00000000       5082.35352     -0.821153998    
   1.89704800       4.57987785      -4.00000000       5082.35352     -0.821153998    
   1.89704800       4.57987785      -5.00000000       5082.35352     -0.821153998    
   1.29409504       4.82962894      -4.00000000       5734.99609     -0.732180238    
   1.29409504       4.82962894      -3.00000000       5734.99609     -0.732180238    
   1.89704800       4.57987785      -3.00000000       5734.99609     -0.732180238    