 VARIABLES="X" "Y" "Z" "abs(p) (Pa)" "angle(p) (rad)"
ZONE N=   1080,E =     600, F=FEPOINT, ET=QUADRILATERAL
   4.82962894       1.29409504      -10.0000000       240.226288      -1.55996907    
   4.82962894       1.29409504      -9.00000000       240.226288      -1.55996907    
   4.91481400      0.647047520      -9.00000000       240.226288      -1.55996907    
   4.91481400      0.647047520      -10.0000000       240.226288      -1.55996907    
   4.82962894       1.29409504      -9.00000000       302.709442      -1.56122434    
   4.82962894       1.29409504      -8.00000000       302.709442      -1.56122434    
   4.91481400      0.647047520      -8.00000000       302.709442      -1.56122434    
   4.91481400      0.647047520      -9.00000000       302.709442      -1.56122434    
   4.82962894       1.29409504      -8.00000000       339.013702      -1.56165528    
   4.82962894       1.29409504      -7.00000000       339.013702      -1.56165528    
   4.91481400      0.647047520      -7.00000000       339.013702      -1.56165528    
   4.91481400      0.647047520      -8.00000000       339.013702      -1.56165528    
   4.82962894       1.29409504      -7.00000000       364.251953      -1.56184196    
   4.82962894       1.29409504      -6.00000000       364.251953      -1.56184196    
   4.91481400      0.647047520      -6.00000000       364.251953      -1.56184196    
   4.91481400      0.647047520      -7.00000000       364.251953      -1.56184196    
   4.82962894       1.29409504      -6.00000000       383.088959      -1.56191242    
   4.82962894       1.29409504      -5.00000000       383.088959      -1.56191242    
   4.91481400      0.647047520      -5.00000000       383.088959      -1.56191242    
   4.91481400      0.647047520      -6.00000000       383.088959      -1.56191242    
   4.82962894       1.29409504      -5.00000000       397.879944      -1.56192148    
   4.82962894       1.29409504      -4.00000000       397.879944      -1.56192148    
   4.91481400      0.647047520      -4.00000000       397.879944      -1.56192148    
   4.91481400      0.647047520      -5.00000000       397.879944      -1.56192148    
   4.82962894       1.29409504      -4.00000000       410.015259      -1.56189442    
   4.82962894       1.29409504      -3.00000000       410.015259      -1.56189442    
   4.91481400      0.647047520      -3.00000000       410.015259      -1.56189442    
   4.91481400      0.647047520      -4.00000000       410.015259      -1.56189442    
   4.82962894       1.29409504      -3.00000000       420.332397      -1.56184769    
   4.82962894       1.29409504      -2.00000000       420.332397      -1.56184769    
   4.91481400      0.647047520      -2.00000000       420.332397      -1.56184769    
   4.91481400      0.647047520      -3.00000000       420.332397      -1.56184769    
   4.82962894       1.29409504      -2.00000000       429.620575      -1.56179702    
   4.82962894       1.29409504      -1.00000000       429.620575      -1.56179702    
   4.91481400      0.647047520      -1.00000000       429.620575      -1.56179702    
   4.91481400      0.647047520      -2.00000000       429.620575      -1.56179702    
   4.82962894       1.29409504      -1.00000000       438.771057      -1.56175423    
   4.82962894       1.29409504       0.00000000       438.771057      -1.56175423    
   4.91481400      0.647047520       0.00000000       438.771057      -1.56175423    
   4.91481400      0.647047520      -1.00000000       438.771057      -1.56175423    
   4.91481400      0.647047520      -10.0000000       94.9434052      -1.56109977    
   4.91481400      0.647047520      -9.00000000       94.9434052      -1.56109977    
   5.00000000       0.00000000      -9.00000000       94.9434052      -1.56109977    
   5.00000000       0.00000000      -10.0000000       94.9434052      -1.56109977    
   4.91481400      0.647047520      -9.00000000       117.760551      -1.56206167    
   4.91481400      0.647047520      -8.00000000       117.760551      -1.56206167    
   5.00000000       0.00000000      -8.00000000       117.760551      -1.56206167    
   5.00000000       0.00000000      -9.00000000       117.760551      -1.56206167    
   4.91481400      0.647047520      -8.00000000       130.703522      -1.56237721    
   4.91481400      0.647047520      -7.00000000       130.703522      -1.56237721    
   5.00000000       0.00000000      -7.00000000       130.703522      -1.56237721    
   5.00000000       0.00000000      -8.00000000       130.703522      -1.56237721    
   4.91481400      0.647047520      -7.00000000       139.704422      -1.56250143    
   4.91481400      0.647047520      -6.00000000       139.704422      -1.56250143    
   5.00000000       0.00000000      -6.00000000       139.704422      -1.56250143    
   5.00000000       0.00000000      -7.00000000       139.704422      -1.56250143    
   4.91481400      0.647047520      -6.00000000       146.404053      -1.56253707    
   4.91481400      0.647047520      -5.00000000       146.404053      -1.56253707    
   5.00000000       0.00000000      -5.00000000       146.404053      -1.56253707    
   5.00000000       0.00000000      -6.00000000       146.404053      -1.56253707    
   4.91481400      0.647047520      -5.00000000       151.676605      -1.56252897    
   4.91481400      0.647047520      -4.00000000       151.676605      -1.56252897    
   5.00000000       0.00000000      -4.00000000       151.676605      -1.56252897    
   5.00000000       0.00000000      -5.00000000       151.676605      -1.56252897    
   4.91481400      0.647047520      -4.00000000       156.000458      -1.56248713    
   4.91481400      0.647047520      -3.00000000       156.000458      -1.56248713    
   5.00000000       0.00000000      -3.00000000       156.000458      -1.56248713    
   5.00000000       0.00000000      -4.00000000       156.000458      -1.56248713    
   4.91481400      0.647047520      -3.00000000       159.665771      -1.56243420    
   4.91481400      0.647047520      -2.00000000       159.665771      -1.56243420    
   5.00000000       0.00000000      -2.00000000       159.665771      -1.56243420    
   5.00000000       0.00000000      -3.00000000       159.665771      -1.56243420    
   4.91481400      0.647047520      -2.00000000       162.969299      -1.56236684    
   4.91481400      0.647047520      -1.00000000       162.969299      -1.56236684    
   5.00000000       0.00000000      -1.00000000       162.969299      -1.56236684    
   5.00000000       0.00000000      -2.00000000       162.969299      -1.56236684    
   4.91481400      0.647047520      -1.00000000       166.120483      -1.56231081    
   4.91481400      0.647047520       0.00000000       166.120483      -1.56231081    
   5.00000000       0.00000000       0.00000000       166.120483      -1.56231081    
   5.00000000       0.00000000      -1.00000000       166.120483      -1.56231081    
   4.33012676       2.50000000      -10.0000000       559.025330      -1.56016064    
   4.33012676       2.50000000      -9.00000000       559.025330      -1.56016064    
   4.57987785       1.89704800      -9.00000000       559.025330      -1.56016064    
   4.57987785       1.89704800      -10.0000000       559.025330      -1.56016064    
   4.33012676       2.50000000      -9.00000000       702.552490      -1.56136489    
   4.33012676       2.50000000      -8.00000000       702.552490      -1.56136489    
   4.57987785       1.89704800      -8.00000000       702.552490      -1.56136489    
   4.57987785       1.89704800      -9.00000000       702.552490      -1.56136489    
   4.33012676       2.50000000      -8.00000000       785.627563      -1.56177604    
   4.33012676       2.50000000      -7.00000000       785.627563      -1.56177604    
   4.57987785       1.89704800      -7.00000000       785.627563      -1.56177604    
   4.57987785       1.89704800      -8.00000000       785.627563      -1.56177604    
   4.33012676       2.50000000      -7.00000000       843.388000      -1.56195045    
   4.33012676       2.50000000      -6.00000000       843.388000      -1.56195045    
   4.57987785       1.89704800      -6.00000000       843.388000      -1.56195045    
   4.57987785       1.89704800      -7.00000000       843.388000      -1.56195045    
   4.33012676       2.50000000      -6.00000000       886.476318      -1.56201565    
   4.33012676       2.50000000      -5.00000000       886.476318      -1.56201565    
   4.57987785       1.89704800      -5.00000000       886.476318      -1.56201565    
   4.57987785       1.89704800      -6.00000000       886.476318      -1.56201565    
   4.33012676       2.50000000      -5.00000000       920.321167      -1.56202161    
   4.33012676       2.50000000      -4.00000000       920.321167      -1.56202161    
   4.57987785       1.89704800      -4.00000000       920.321167      -1.56202161    
   4.57987785       1.89704800      -5.00000000       920.321167      -1.56202161    
   4.33012676       2.50000000      -4.00000000       948.090088      -1.56199229    
   4.33012676       2.50000000      -3.00000000       948.090088      -1.56199229    
   4.57987785       1.89704800      -3.00000000       948.090088      -1.56199229    
   4.57987785       1.89704800      -4.00000000       948.090088      -1.56199229    
   4.33012676       2.50000000      -3.00000000       971.687317      -1.56194413    
   4.33012676       2.50000000      -2.00000000       971.687317      -1.56194413    
   4.57987785       1.89704800      -2.00000000       971.687317      -1.56194413    
   4.57987785       1.89704800      -3.00000000       971.687317      -1.56194413    
   4.33012676       2.50000000      -2.00000000       992.929688      -1.56189060    
   4.33012676       2.50000000      -1.00000000       992.929688      -1.56189060    
   4.57987785       1.89704800      -1.00000000       992.929688      -1.56189060    
   4.57987785       1.89704800      -2.00000000       992.929688      -1.56189060    
   4.33012676       2.50000000      -1.00000000       1013.75665      -1.56184602    
   4.33012676       2.50000000       0.00000000       1013.75665      -1.56184602    
   4.57987785       1.89704800       0.00000000       1013.75665      -1.56184602    
   4.57987785       1.89704800      -1.00000000       1013.75665      -1.56184602    
   4.57987785       1.89704800      -10.0000000       423.640503      -1.56045723    
   4.57987785       1.89704800      -9.00000000       423.640503      -1.56045723    
   4.82962894       1.29409504      -9.00000000       423.640503      -1.56045723    
   4.82962894       1.29409504      -10.0000000       423.640503      -1.56045723    
   4.57987785       1.89704800      -9.00000000       530.206787      -1.56158459    
   4.57987785       1.89704800      -8.00000000       530.206787      -1.56158459    
   4.82962894       1.29409504      -8.00000000       530.206787      -1.56158459    
   4.82962894       1.29409504      -9.00000000       530.206787      -1.56158459    
   4.57987785       1.89704800      -8.00000000       591.517212      -1.56196380    
   4.57987785       1.89704800      -7.00000000       591.517212      -1.56196380    
   4.82962894       1.29409504      -7.00000000       591.517212      -1.56196380    
   4.82962894       1.29409504      -8.00000000       591.517212      -1.56196380    
   4.57987785       1.89704800      -7.00000000       634.142700      -1.56212294    
   4.57987785       1.89704800      -6.00000000       634.142700      -1.56212294    
   4.82962894       1.29409504      -6.00000000       634.142700      -1.56212294    
   4.82962894       1.29409504      -7.00000000       634.142700      -1.56212294    
   4.57987785       1.89704800      -6.00000000       665.917908      -1.56217873    
   4.57987785       1.89704800      -5.00000000       665.917908      -1.56217873    
   4.82962894       1.29409504      -5.00000000       665.917908      -1.56217873    
   4.82962894       1.29409504      -6.00000000       665.917908      -1.56217873    
   4.57987785       1.89704800      -5.00000000       690.896118      -1.56217849    
   4.57987785       1.89704800      -4.00000000       690.896118      -1.56217849    
   4.82962894       1.29409504      -4.00000000       690.896118      -1.56217849    
   4.82962894       1.29409504      -5.00000000       690.896118      -1.56217849    
   4.57987785       1.89704800      -4.00000000       711.383911      -1.56214631    
   4.57987785       1.89704800      -3.00000000       711.383911      -1.56214631    
   4.82962894       1.29409504      -3.00000000       711.383911      -1.56214631    
   4.82962894       1.29409504      -4.00000000       711.383911      -1.56214631    
   4.57987785       1.89704800      -3.00000000       728.782654      -1.56209385    
   4.57987785       1.89704800      -2.00000000       728.782654      -1.56209385    
   4.82962894       1.29409504      -2.00000000       728.782654      -1.56209385    
   4.82962894       1.29409504      -3.00000000       728.782654      -1.56209385    
   4.57987785       1.89704800      -2.00000000       744.450745      -1.56203794    
   4.57987785       1.89704800      -1.00000000       744.450745      -1.56203794    
   4.82962894       1.29409504      -1.00000000       744.450745      -1.56203794    
   4.82962894       1.29409504      -2.00000000       744.450745      -1.56203794    
   4.57987785       1.89704800      -1.00000000       759.689636      -1.56199121    
   4.57987785       1.89704800       0.00000000       759.689636      -1.56199121    
   4.82962894       1.29409504       0.00000000       759.689636      -1.56199121    
   4.82962894       1.29409504      -1.00000000       759.689636      -1.56199121    
   3.53553391       3.53553391      -10.0000000       839.725708      -1.56021702    
   3.53553391       3.53553391      -9.00000000       839.725708      -1.56021702    
   3.93283010       3.01776695      -9.00000000       839.725708      -1.56021702    
   3.93283010       3.01776695      -10.0000000       839.725708      -1.56021702    
   3.53553391       3.53553391      -9.00000000       1054.51416      -1.56140494    
   3.53553391       3.53553391      -8.00000000       1054.51416      -1.56140494    
   3.93283010       3.01776695      -8.00000000       1054.51416      -1.56140494    
   3.93283010       3.01776695      -9.00000000       1054.51416      -1.56140494    
   3.53553391       3.53553391      -8.00000000       1178.70251      -1.56180966    
   3.53553391       3.53553391      -7.00000000       1178.70251      -1.56180966    
   3.93283010       3.01776695      -7.00000000       1178.70251      -1.56180966    
   3.93283010       3.01776695      -8.00000000       1178.70251      -1.56180966    
   3.53553391       3.53553391      -7.00000000       1265.04663      -1.56198204    
   3.53553391       3.53553391      -6.00000000       1265.04663      -1.56198204    
   3.93283010       3.01776695      -6.00000000       1265.04663      -1.56198204    
   3.93283010       3.01776695      -7.00000000       1265.04663      -1.56198204    
   3.53553391       3.53553391      -6.00000000       1329.44958      -1.56204581    
   3.53553391       3.53553391      -5.00000000       1329.44958      -1.56204581    
   3.93283010       3.01776695      -5.00000000       1329.44958      -1.56204581    
   3.93283010       3.01776695      -6.00000000       1329.44958      -1.56204581    
   3.53553391       3.53553391      -5.00000000       1380.04333      -1.56205046    
   3.53553391       3.53553391      -4.00000000       1380.04333      -1.56205046    
   3.93283010       3.01776695      -4.00000000       1380.04333      -1.56205046    
   3.93283010       3.01776695      -5.00000000       1380.04333      -1.56205046    
   3.53553391       3.53553391      -4.00000000       1421.55334      -1.56202066    
   3.53553391       3.53553391      -3.00000000       1421.55334      -1.56202066    
   3.93283010       3.01776695      -3.00000000       1421.55334      -1.56202066    
   3.93283010       3.01776695      -4.00000000       1421.55334      -1.56202066    
   3.53553391       3.53553391      -3.00000000       1456.82227      -1.56197238    
   3.53553391       3.53553391      -2.00000000       1456.82227      -1.56197238    
   3.93283010       3.01776695      -2.00000000       1456.82227      -1.56197238    
   3.93283010       3.01776695      -3.00000000       1456.82227      -1.56197238    
   3.53553391       3.53553391      -2.00000000       1488.57605      -1.56191695    
   3.53553391       3.53553391      -1.00000000       1488.57605      -1.56191695    
   3.93283010       3.01776695      -1.00000000       1488.57605      -1.56191695    
   3.93283010       3.01776695      -2.00000000       1488.57605      -1.56191695    
   3.53553391       3.53553391      -1.00000000       1519.65991      -1.56187201    
   3.53553391       3.53553391       0.00000000       1519.65991      -1.56187201    
   3.93283010       3.01776695       0.00000000       1519.65991      -1.56187201    
   3.93283010       3.01776695      -1.00000000       1519.65991      -1.56187201    
   3.93283010       3.01776695      -10.0000000       723.467957      -1.56037462    
   3.93283010       3.01776695      -9.00000000       723.467957      -1.56037462    
   4.33012676       2.50000000      -9.00000000       723.467957      -1.56037462    
   4.33012676       2.50000000      -10.0000000       723.467957      -1.56037462    
   3.93283010       3.01776695      -9.00000000       906.521362      -1.56152153    
   3.93283010       3.01776695      -8.00000000       906.521362      -1.56152153    
   4.33012676       2.50000000      -8.00000000       906.521362      -1.56152153    
   4.33012676       2.50000000      -9.00000000       906.521362      -1.56152153    
   3.93283010       3.01776695      -8.00000000       1012.01685      -1.56191003    
   3.93283010       3.01776695      -7.00000000       1012.01685      -1.56191003    
   4.33012676       2.50000000      -7.00000000       1012.01685      -1.56191003    
   4.33012676       2.50000000      -8.00000000       1012.01685      -1.56191003    
   3.93283010       3.01776695      -7.00000000       1085.36450      -1.56207430    
   3.93283010       3.01776695      -6.00000000       1085.36450      -1.56207430    
   4.33012676       2.50000000      -6.00000000       1085.36450      -1.56207430    
   4.33012676       2.50000000      -7.00000000       1085.36450      -1.56207430    
   3.93283010       3.01776695      -6.00000000       1140.05408      -1.56213212    
   3.93283010       3.01776695      -5.00000000       1140.05408      -1.56213212    
   4.33012676       2.50000000      -5.00000000       1140.05408      -1.56213212    
   4.33012676       2.50000000      -6.00000000       1140.05408      -1.56213212    
   3.93283010       3.01776695      -5.00000000       1183.03064      -1.56213379    
   3.93283010       3.01776695      -4.00000000       1183.03064      -1.56213379    
   4.33012676       2.50000000      -4.00000000       1183.03064      -1.56213379    
   4.33012676       2.50000000      -5.00000000       1183.03064      -1.56213379    
   3.93283010       3.01776695      -4.00000000       1218.29126      -1.56210232    
   3.93283010       3.01776695      -3.00000000       1218.29126      -1.56210232    
   4.33012676       2.50000000      -3.00000000       1218.29126      -1.56210232    
   4.33012676       2.50000000      -4.00000000       1218.29126      -1.56210232    
   3.93283010       3.01776695      -3.00000000       1248.23474      -1.56205142    
   3.93283010       3.01776695      -2.00000000       1248.23474      -1.56205142    
   4.33012676       2.50000000      -2.00000000       1248.23474      -1.56205142    
   4.33012676       2.50000000      -3.00000000       1248.23474      -1.56205142    
   3.93283010       3.01776695      -2.00000000       1275.20239      -1.56199610    
   3.93283010       3.01776695      -1.00000000       1275.20239      -1.56199610    
   4.33012676       2.50000000      -1.00000000       1275.20239      -1.56199610    
   4.33012676       2.50000000      -2.00000000       1275.20239      -1.56199610    
   3.93283010       3.01776695      -1.00000000       1301.48877      -1.56194961    
   3.93283010       3.01776695       0.00000000       1301.48877      -1.56194961    
   4.33012676       2.50000000       0.00000000       1301.48877      -1.56194961    
   4.33012676       2.50000000      -1.00000000       1301.48877      -1.56194961    
   2.50000000       4.33012676      -10.0000000       1063.20166      -1.56024516    
   2.50000000       4.33012676      -9.00000000       1063.20166      -1.56024516    
   3.01776695       3.93283010      -9.00000000       1063.20166      -1.56024516    
   3.01776695       3.93283010      -10.0000000       1063.20166      -1.56024516    
   2.50000000       4.33012676      -9.00000000       1334.61707      -1.56142640    
   2.50000000       4.33012676      -8.00000000       1334.61707      -1.56142640    
   3.01776695       3.93283010      -8.00000000       1334.61707      -1.56142640    
   3.01776695       3.93283010      -9.00000000       1334.61707      -1.56142640    
   2.50000000       4.33012676      -8.00000000       1491.45325      -1.56182802    
   2.50000000       4.33012676      -7.00000000       1491.45325      -1.56182802    
   3.01776695       3.93283010      -7.00000000       1491.45325      -1.56182802    
   3.01776695       3.93283010      -8.00000000       1491.45325      -1.56182802    
   2.50000000       4.33012676      -7.00000000       1600.49609      -1.56199896    
   2.50000000       4.33012676      -6.00000000       1600.49609      -1.56199896    
   3.01776695       3.93283010      -6.00000000       1600.49609      -1.56199896    
   3.01776695       3.93283010      -7.00000000       1600.49609      -1.56199896    
   2.50000000       4.33012676      -6.00000000       1681.82434      -1.56206155    
   2.50000000       4.33012676      -5.00000000       1681.82434      -1.56206155    
   3.01776695       3.93283010      -5.00000000       1681.82434      -1.56206155    
   3.01776695       3.93283010      -6.00000000       1681.82434      -1.56206155    
   2.50000000       4.33012676      -5.00000000       1745.72009      -1.56206536    
   2.50000000       4.33012676      -4.00000000       1745.72009      -1.56206536    
   3.01776695       3.93283010      -4.00000000       1745.72009      -1.56206536    
   3.01776695       3.93283010      -5.00000000       1745.72009      -1.56206536    
   2.50000000       4.33012676      -4.00000000       1798.14075      -1.56203556    
   2.50000000       4.33012676      -3.00000000       1798.14075      -1.56203556    
   3.01776695       3.93283010      -3.00000000       1798.14075      -1.56203556    
   3.01776695       3.93283010      -4.00000000       1798.14075      -1.56203556    
   2.50000000       4.33012676      -3.00000000       1842.67798      -1.56198645    
   2.50000000       4.33012676      -2.00000000       1842.67798      -1.56198645    
   3.01776695       3.93283010      -2.00000000       1842.67798      -1.56198645    
   3.01776695       3.93283010      -3.00000000       1842.67798      -1.56198645    
   2.50000000       4.33012676      -2.00000000       1882.77368      -1.56193137    
   2.50000000       4.33012676      -1.00000000       1882.77368      -1.56193137    
   3.01776695       3.93283010      -1.00000000       1882.77368      -1.56193137    
   3.01776695       3.93283010      -2.00000000       1882.77368      -1.56193137    
   2.50000000       4.33012676      -1.00000000       1922.00171      -1.56188631    
   2.50000000       4.33012676       0.00000000       1922.00171      -1.56188631    
   3.01776695       3.93283010       0.00000000       1922.00171      -1.56188631    
   3.01776695       3.93283010      -1.00000000       1922.00171      -1.56188631    
   3.01776695       3.93283010      -10.0000000       973.995178      -1.56033814    
   3.01776695       3.93283010      -9.00000000       973.995178      -1.56033814    
   3.53553391       3.53553391      -9.00000000       973.995178      -1.56033814    
   3.53553391       3.53553391      -10.0000000       973.995178      -1.56033814    
   3.01776695       3.93283010      -9.00000000       1221.05542      -1.56149471    
   3.01776695       3.93283010      -8.00000000       1221.05542      -1.56149471    
   3.53553391       3.53553391      -8.00000000       1221.05542      -1.56149471    
   3.53553391       3.53553391      -9.00000000       1221.05542      -1.56149471    
   3.01776695       3.93283010      -8.00000000       1363.54871      -1.56188715    
   3.01776695       3.93283010      -7.00000000       1363.54871      -1.56188715    
   3.53553391       3.53553391      -7.00000000       1363.54871      -1.56188715    
   3.53553391       3.53553391      -8.00000000       1363.54871      -1.56188715    
   3.01776695       3.93283010      -7.00000000       1462.62085      -1.56205237    
   3.01776695       3.93283010      -6.00000000       1462.62085      -1.56205237    
   3.53553391       3.53553391      -6.00000000       1462.62085      -1.56205237    
   3.53553391       3.53553391      -7.00000000       1462.62085      -1.56205237    
   3.01776695       3.93283010      -6.00000000       1536.49585      -1.56211245    
   3.01776695       3.93283010      -5.00000000       1536.49585      -1.56211245    
   3.53553391       3.53553391      -5.00000000       1536.49585      -1.56211245    
   3.53553391       3.53553391      -6.00000000       1536.49585      -1.56211245    
   3.01776695       3.93283010      -5.00000000       1594.54773      -1.56211424    
   3.01776695       3.93283010      -4.00000000       1594.54773      -1.56211424    
   3.53553391       3.53553391      -4.00000000       1594.54773      -1.56211424    
   3.53553391       3.53553391      -5.00000000       1594.54773      -1.56211424    
   3.01776695       3.93283010      -4.00000000       1642.16992      -1.56208301    
   3.01776695       3.93283010      -3.00000000       1642.16992      -1.56208301    
   3.53553391       3.53553391      -3.00000000       1642.16992      -1.56208301    
   3.53553391       3.53553391      -4.00000000       1642.16992      -1.56208301    
   3.01776695       3.93283010      -3.00000000       1682.62183      -1.56203330    
   3.01776695       3.93283010      -2.00000000       1682.62183      -1.56203330    
   3.53553391       3.53553391      -2.00000000       1682.62183      -1.56203330    
   3.53553391       3.53553391      -3.00000000       1682.62183      -1.56203330    
   3.01776695       3.93283010      -2.00000000       1719.04883      -1.56197786    
   3.01776695       3.93283010      -1.00000000       1719.04883      -1.56197786    
   3.53553391       3.53553391      -1.00000000       1719.04883      -1.56197786    
   3.53553391       3.53553391      -2.00000000       1719.04883      -1.56197786    
   3.01776695       3.93283010      -1.00000000       1754.59473      -1.56193185    
   3.01776695       3.93283010       0.00000000       1754.59473      -1.56193185    
   3.53553391       3.53553391       0.00000000       1754.59473      -1.56193185    
   3.53553391       3.53553391      -1.00000000       1754.59473      -1.56193185    
   1.29409504       4.82962894      -10.0000000       1214.22046      -1.56026530    
   1.29409504       4.82962894      -9.00000000       1214.22046      -1.56026530    
   1.89704800       4.57987785      -9.00000000       1214.22046      -1.56026530    
   1.89704800       4.57987785      -10.0000000       1214.22046      -1.56026530    
   1.29409504       4.82962894      -9.00000000       1523.76453      -1.56144071    
   1.29409504       4.82962894      -8.00000000       1523.76453      -1.56144071    
   1.89704800       4.57987785      -8.00000000       1523.76453      -1.56144071    
   1.89704800       4.57987785      -9.00000000       1523.76453      -1.56144071    
   1.29409504       4.82962894      -8.00000000       1702.56067      -1.56184065    
   1.29409504       4.82962894      -7.00000000       1702.56067      -1.56184065    
   1.89704800       4.57987785      -7.00000000       1702.56067      -1.56184065    
   1.89704800       4.57987785      -8.00000000       1702.56067      -1.56184065    
   1.29409504       4.82962894      -7.00000000       1826.87366      -1.56201005    
   1.29409504       4.82962894      -6.00000000       1826.87366      -1.56201005    
   1.89704800       4.57987785      -6.00000000       1826.87366      -1.56201005    
   1.89704800       4.57987785      -7.00000000       1826.87366      -1.56201005    
   1.29409504       4.82962894      -6.00000000       1919.58447      -1.56207216    
   1.29409504       4.82962894      -5.00000000       1919.58447      -1.56207216    
   1.89704800       4.57987785      -5.00000000       1919.58447      -1.56207216    
   1.89704800       4.57987785      -6.00000000       1919.58447      -1.56207216    
   1.29409504       4.82962894      -5.00000000       1992.42603      -1.56207585    
   1.29409504       4.82962894      -4.00000000       1992.42603      -1.56207585    
   1.89704800       4.57987785      -4.00000000       1992.42603      -1.56207585    
   1.89704800       4.57987785      -5.00000000       1992.42603      -1.56207585    
   1.29409504       4.82962894      -4.00000000       2052.18506      -1.56204557    
   1.29409504       4.82962894      -3.00000000       2052.18506      -1.56204557    
   1.89704800       4.57987785      -3.00000000       2052.18506      -1.56204557    