 VARIABLES="X" "Y" "Z" "abs(p) (Pa)" "angle(p) (rad)"
ZONE N=   1080,E =     600, F=FEPOINT, ET=QUADRILATERAL
   4.82962894       1.29409504      -10.0000000       26.0562649       1.57079661    
   4.82962894       1.29409504      -9.00000000       26.0562649       1.57079661    
   4.91481400      0.647047520      -9.00000000       26.0562649       1.57079661    
   4.91481400      0.647047520      -10.0000000       26.0562649       1.57079661    
   4.82962894       1.29409504      -9.00000000       26.6467323       1.57079673    
   4.82962894       1.29409504      -8.00000000       26.6467323       1.57079673    
   4.91481400      0.647047520      -8.00000000       26.6467323       1.57079673    
   4.91481400      0.647047520      -9.00000000       26.6467323       1.57079673    
   4.82962894       1.29409504      -8.00000000       26.6500740       1.57079649    
   4.82962894       1.29409504      -7.00000000       26.6500740       1.57079649    
   4.91481400      0.647047520      -7.00000000       26.6500740       1.57079649    
   4.91481400      0.647047520      -8.00000000       26.6500740       1.57079649    
   4.82962894       1.29409504      -7.00000000       26.6543579       1.57079661    
   4.82962894       1.29409504      -6.00000000       26.6543579       1.57079661    
   4.91481400      0.647047520      -6.00000000       26.6543579       1.57079661    
   4.91481400      0.647047520      -7.00000000       26.6543579       1.57079661    
   4.82962894       1.29409504      -6.00000000       26.6441402       1.57079661    
   4.82962894       1.29409504      -5.00000000       26.6441402       1.57079661    
   4.91481400      0.647047520      -5.00000000       26.6441402       1.57079661    
   4.91481400      0.647047520      -6.00000000       26.6441402       1.57079661    
   4.82962894       1.29409504      -5.00000000       26.6439629       1.57079685    
   4.82962894       1.29409504      -4.00000000       26.6439629       1.57079685    
   4.91481400      0.647047520      -4.00000000       26.6439629       1.57079685    
   4.91481400      0.647047520      -5.00000000       26.6439629       1.57079685    
   4.82962894       1.29409504      -4.00000000       26.6641960       1.57079661    
   4.82962894       1.29409504      -3.00000000       26.6641960       1.57079661    
   4.91481400      0.647047520      -3.00000000       26.6641960       1.57079661    
   4.91481400      0.647047520      -4.00000000       26.6641960       1.57079661    
   4.82962894       1.29409504      -3.00000000       26.6558819       1.57079661    
   4.82962894       1.29409504      -2.00000000       26.6558819       1.57079661    
   4.91481400      0.647047520      -2.00000000       26.6558819       1.57079661    
   4.91481400      0.647047520      -3.00000000       26.6558819       1.57079661    
   4.82962894       1.29409504      -2.00000000       26.6610489       1.57079673    
   4.82962894       1.29409504      -1.00000000       26.6610489       1.57079673    
   4.91481400      0.647047520      -1.00000000       26.6610489       1.57079673    
   4.91481400      0.647047520      -2.00000000       26.6610489       1.57079673    
   4.82962894       1.29409504      -1.00000000       26.5236778       1.57079661    
   4.82962894       1.29409504       0.00000000       26.5236778       1.57079661    
   4.91481400      0.647047520       0.00000000       26.5236778       1.57079661    
   4.91481400      0.647047520      -1.00000000       26.5236778       1.57079661    
   4.91481400      0.647047520      -10.0000000       26.0566883      -1.57079601    
   4.91481400      0.647047520      -9.00000000       26.0566883      -1.57079601    
   5.00000000       0.00000000      -9.00000000       26.0566883      -1.57079601    
   5.00000000       0.00000000      -10.0000000       26.0566883      -1.57079601    
   4.91481400      0.647047520      -9.00000000       26.6472569      -1.57079625    
   4.91481400      0.647047520      -8.00000000       26.6472569      -1.57079625    
   5.00000000       0.00000000      -8.00000000       26.6472569      -1.57079625    
   5.00000000       0.00000000      -9.00000000       26.6472569      -1.57079625    
   4.91481400      0.647047520      -8.00000000       26.6505394      -1.57079613    
   4.91481400      0.647047520      -7.00000000       26.6505394      -1.57079613    
   5.00000000       0.00000000      -7.00000000       26.6505394      -1.57079613    
   5.00000000       0.00000000      -8.00000000       26.6505394      -1.57079613    
   4.91481400      0.647047520      -7.00000000       26.6548424      -1.57079601    
   4.91481400      0.647047520      -6.00000000       26.6548424      -1.57079601    
   5.00000000       0.00000000      -6.00000000       26.6548424      -1.57079601    
   5.00000000       0.00000000      -7.00000000       26.6548424      -1.57079601    
   4.91481400      0.647047520      -6.00000000       26.6446438      -1.57079601    
   4.91481400      0.647047520      -5.00000000       26.6446438      -1.57079601    
   5.00000000       0.00000000      -5.00000000       26.6446438      -1.57079601    
   5.00000000       0.00000000      -6.00000000       26.6446438      -1.57079601    
   4.91481400      0.647047520      -5.00000000       26.6444931      -1.57079601    
   4.91481400      0.647047520      -4.00000000       26.6444931      -1.57079601    
   5.00000000       0.00000000      -4.00000000       26.6444931      -1.57079601    
   5.00000000       0.00000000      -5.00000000       26.6444931      -1.57079601    
   4.91481400      0.647047520      -4.00000000       26.6646309      -1.57079601    
   4.91481400      0.647047520      -3.00000000       26.6646309      -1.57079601    
   5.00000000       0.00000000      -3.00000000       26.6646309      -1.57079601    
   5.00000000       0.00000000      -4.00000000       26.6646309      -1.57079601    
   4.91481400      0.647047520      -3.00000000       26.6563053      -1.57079625    
   4.91481400      0.647047520      -2.00000000       26.6563053      -1.57079625    
   5.00000000       0.00000000      -2.00000000       26.6563053      -1.57079625    
   5.00000000       0.00000000      -3.00000000       26.6563053      -1.57079625    
   4.91481400      0.647047520      -2.00000000       26.6615105      -1.57079613    
   4.91481400      0.647047520      -1.00000000       26.6615105      -1.57079613    
   5.00000000       0.00000000      -1.00000000       26.6615105      -1.57079613    
   5.00000000       0.00000000      -2.00000000       26.6615105      -1.57079613    
   4.91481400      0.647047520      -1.00000000       26.5240669      -1.57079613    
   4.91481400      0.647047520       0.00000000       26.5240669      -1.57079613    
   5.00000000       0.00000000       0.00000000       26.5240669      -1.57079613    
   5.00000000       0.00000000      -1.00000000       26.5240669      -1.57079613    
   4.33012676       2.50000000      -10.0000000       26.0565891       1.57079637    
   4.33012676       2.50000000      -9.00000000       26.0565891       1.57079637    
   4.57987785       1.89704800      -9.00000000       26.0565891       1.57079637    
   4.57987785       1.89704800      -10.0000000       26.0565891       1.57079637    
   4.33012676       2.50000000      -9.00000000       26.6470909       1.57079625    
   4.33012676       2.50000000      -8.00000000       26.6470909       1.57079625    
   4.57987785       1.89704800      -8.00000000       26.6470909       1.57079625    
   4.57987785       1.89704800      -9.00000000       26.6470909       1.57079625    
   4.33012676       2.50000000      -8.00000000       26.6503468       1.57079637    
   4.33012676       2.50000000      -7.00000000       26.6503468       1.57079637    
   4.57987785       1.89704800      -7.00000000       26.6503468       1.57079637    
   4.57987785       1.89704800      -8.00000000       26.6503468       1.57079637    
   4.33012676       2.50000000      -7.00000000       26.6546612       1.57079649    
   4.33012676       2.50000000      -6.00000000       26.6546612       1.57079649    
   4.57987785       1.89704800      -6.00000000       26.6546612       1.57079649    
   4.57987785       1.89704800      -7.00000000       26.6546612       1.57079649    
   4.33012676       2.50000000      -6.00000000       26.6444511       1.57079637    
   4.33012676       2.50000000      -5.00000000       26.6444511       1.57079637    
   4.57987785       1.89704800      -5.00000000       26.6444511       1.57079637    
   4.57987785       1.89704800      -6.00000000       26.6444511       1.57079637    
   4.33012676       2.50000000      -5.00000000       26.6442947       1.57079649    
   4.33012676       2.50000000      -4.00000000       26.6442947       1.57079649    
   4.57987785       1.89704800      -4.00000000       26.6442947       1.57079649    
   4.57987785       1.89704800      -5.00000000       26.6442947       1.57079649    
   4.33012676       2.50000000      -4.00000000       26.6644859       1.57079649    
   4.33012676       2.50000000      -3.00000000       26.6644859       1.57079649    
   4.57987785       1.89704800      -3.00000000       26.6644859       1.57079649    
   4.57987785       1.89704800      -4.00000000       26.6644859       1.57079649    
   4.33012676       2.50000000      -3.00000000       26.6563168       1.57079649    
   4.33012676       2.50000000      -2.00000000       26.6563168       1.57079649    
   4.57987785       1.89704800      -2.00000000       26.6563168       1.57079649    
   4.57987785       1.89704800      -3.00000000       26.6563168       1.57079649    
   4.33012676       2.50000000      -2.00000000       26.6614246       1.57079649    
   4.33012676       2.50000000      -1.00000000       26.6614246       1.57079649    
   4.57987785       1.89704800      -1.00000000       26.6614246       1.57079649    
   4.57987785       1.89704800      -2.00000000       26.6614246       1.57079649    
   4.33012676       2.50000000      -1.00000000       26.5239849       1.57079649    
   4.33012676       2.50000000       0.00000000       26.5239849       1.57079649    
   4.57987785       1.89704800       0.00000000       26.5239849       1.57079649    
   4.57987785       1.89704800      -1.00000000       26.5239849       1.57079649    
   4.57987785       1.89704800      -10.0000000       26.0567570      -1.57079601    
   4.57987785       1.89704800      -9.00000000       26.0567570      -1.57079601    
   4.82962894       1.29409504      -9.00000000       26.0567570      -1.57079601    
   4.82962894       1.29409504      -10.0000000       26.0567570      -1.57079601    
   4.57987785       1.89704800      -9.00000000       26.6472836      -1.57079601    
   4.57987785       1.89704800      -8.00000000       26.6472836      -1.57079601    
   4.82962894       1.29409504      -8.00000000       26.6472836      -1.57079601    
   4.82962894       1.29409504      -9.00000000       26.6472836      -1.57079601    
   4.57987785       1.89704800      -8.00000000       26.6505394      -1.57079625    
   4.57987785       1.89704800      -7.00000000       26.6505394      -1.57079625    
   4.82962894       1.29409504      -7.00000000       26.6505394      -1.57079625    
   4.82962894       1.29409504      -8.00000000       26.6505394      -1.57079625    
   4.57987785       1.89704800      -7.00000000       26.6548576      -1.57079613    
   4.57987785       1.89704800      -6.00000000       26.6548576      -1.57079613    
   4.82962894       1.29409504      -6.00000000       26.6548576      -1.57079613    
   4.82962894       1.29409504      -7.00000000       26.6548576      -1.57079613    
   4.57987785       1.89704800      -6.00000000       26.6446209      -1.57079613    
   4.57987785       1.89704800      -5.00000000       26.6446209      -1.57079613    
   4.82962894       1.29409504      -5.00000000       26.6446209      -1.57079613    
   4.82962894       1.29409504      -6.00000000       26.6446209      -1.57079613    
   4.57987785       1.89704800      -5.00000000       26.6444626      -1.57079613    
   4.57987785       1.89704800      -4.00000000       26.6444626      -1.57079613    
   4.82962894       1.29409504      -4.00000000       26.6444626      -1.57079613    
   4.82962894       1.29409504      -5.00000000       26.6444626      -1.57079613    
   4.57987785       1.89704800      -4.00000000       26.6646023      -1.57079601    
   4.57987785       1.89704800      -3.00000000       26.6646023      -1.57079601    
   4.82962894       1.29409504      -3.00000000       26.6646023      -1.57079601    
   4.82962894       1.29409504      -4.00000000       26.6646023      -1.57079601    
   4.57987785       1.89704800      -3.00000000       26.6562710      -1.57079601    
   4.57987785       1.89704800      -2.00000000       26.6562710      -1.57079601    
   4.82962894       1.29409504      -2.00000000       26.6562710      -1.57079601    
   4.82962894       1.29409504      -3.00000000       26.6562710      -1.57079601    
   4.57987785       1.89704800      -2.00000000       26.6614819      -1.57079601    
   4.57987785       1.89704800      -1.00000000       26.6614819      -1.57079601    
   4.82962894       1.29409504      -1.00000000       26.6614819      -1.57079601    
   4.82962894       1.29409504      -2.00000000       26.6614819      -1.57079601    
   4.57987785       1.89704800      -1.00000000       26.5240917      -1.57079601    
   4.57987785       1.89704800       0.00000000       26.5240917      -1.57079601    
   4.82962894       1.29409504       0.00000000       26.5240917      -1.57079601    
   4.82962894       1.29409504      -1.00000000       26.5240917      -1.57079601    
   3.53553391       3.53553391      -10.0000000       26.0567265       1.57079637    
   3.53553391       3.53553391      -9.00000000       26.0567265       1.57079637    
   3.93283010       3.01776695      -9.00000000       26.0567265       1.57079637    
   3.93283010       3.01776695      -10.0000000       26.0567265       1.57079637    
   3.53553391       3.53553391      -9.00000000       26.6472149       1.57079625    
   3.53553391       3.53553391      -8.00000000       26.6472149       1.57079625    
   3.93283010       3.01776695      -8.00000000       26.6472149       1.57079625    
   3.93283010       3.01776695      -9.00000000       26.6472149       1.57079625    
   3.53553391       3.53553391      -8.00000000       26.6504765       1.57079637    
   3.53553391       3.53553391      -7.00000000       26.6504765       1.57079637    
   3.93283010       3.01776695      -7.00000000       26.6504765       1.57079637    
   3.93283010       3.01776695      -8.00000000       26.6504765       1.57079637    
   3.53553391       3.53553391      -7.00000000       26.6547680       1.57079649    
   3.53553391       3.53553391      -6.00000000       26.6547680       1.57079649    
   3.93283010       3.01776695      -6.00000000       26.6547680       1.57079649    
   3.93283010       3.01776695      -7.00000000       26.6547680       1.57079649    
   3.53553391       3.53553391      -6.00000000       26.6445255       1.57079637    
   3.53553391       3.53553391      -5.00000000       26.6445255       1.57079637    
   3.93283010       3.01776695      -5.00000000       26.6445255       1.57079637    
   3.93283010       3.01776695      -6.00000000       26.6445255       1.57079637    
   3.53553391       3.53553391      -5.00000000       26.6444683       1.57079649    
   3.53553391       3.53553391      -4.00000000       26.6444683       1.57079649    
   3.93283010       3.01776695      -4.00000000       26.6444683       1.57079649    
   3.93283010       3.01776695      -5.00000000       26.6444683       1.57079649    
   3.53553391       3.53553391      -4.00000000       26.6646175       1.57079649    
   3.53553391       3.53553391      -3.00000000       26.6646175       1.57079649    
   3.93283010       3.01776695      -3.00000000       26.6646175       1.57079649    
   3.93283010       3.01776695      -4.00000000       26.6646175       1.57079649    
   3.53553391       3.53553391      -3.00000000       26.6563644       1.57079649    
   3.53553391       3.53553391      -2.00000000       26.6563644       1.57079649    
   3.93283010       3.01776695      -2.00000000       26.6563644       1.57079649    
   3.93283010       3.01776695      -3.00000000       26.6563644       1.57079649    
   3.53553391       3.53553391      -2.00000000       26.6615944       1.57079649    
   3.53553391       3.53553391      -1.00000000       26.6615944       1.57079649    
   3.93283010       3.01776695      -1.00000000       26.6615944       1.57079649    
   3.93283010       3.01776695      -2.00000000       26.6615944       1.57079649    
   3.53553391       3.53553391      -1.00000000       26.5241833       1.57079661    
   3.53553391       3.53553391       0.00000000       26.5241833       1.57079661    
   3.93283010       3.01776695       0.00000000       26.5241833       1.57079661    
   3.93283010       3.01776695      -1.00000000       26.5241833       1.57079661    
   3.93283010       3.01776695      -10.0000000       26.0564804      -1.57079625    
   3.93283010       3.01776695      -9.00000000       26.0564804      -1.57079625    
   4.33012676       2.50000000      -9.00000000       26.0564804      -1.57079625    
   4.33012676       2.50000000      -10.0000000       26.0564804      -1.57079625    
   3.93283010       3.01776695      -9.00000000       26.6470261      -1.57079637    
   3.93283010       3.01776695      -8.00000000       26.6470261      -1.57079637    
   4.33012676       2.50000000      -8.00000000       26.6470261      -1.57079637    
   4.33012676       2.50000000      -9.00000000       26.6470261      -1.57079637    
   3.93283010       3.01776695      -8.00000000       26.6503162      -1.57079601    
   3.93283010       3.01776695      -7.00000000       26.6503162      -1.57079601    
   4.33012676       2.50000000      -7.00000000       26.6503162      -1.57079601    
   4.33012676       2.50000000      -8.00000000       26.6503162      -1.57079601    
   3.93283010       3.01776695      -7.00000000       26.6546040      -1.57079625    
   3.93283010       3.01776695      -6.00000000       26.6546040      -1.57079625    
   4.33012676       2.50000000      -6.00000000       26.6546040      -1.57079625    
   4.33012676       2.50000000      -7.00000000       26.6546040      -1.57079625    
   3.93283010       3.01776695      -6.00000000       26.6443539      -1.57079613    
   3.93283010       3.01776695      -5.00000000       26.6443539      -1.57079613    
   4.33012676       2.50000000      -5.00000000       26.6443539      -1.57079613    
   4.33012676       2.50000000      -6.00000000       26.6443539      -1.57079613    
   3.93283010       3.01776695      -5.00000000       26.6442127      -1.57079601    
   3.93283010       3.01776695      -4.00000000       26.6442127      -1.57079601    
   4.33012676       2.50000000      -4.00000000       26.6442127      -1.57079601    
   4.33012676       2.50000000      -5.00000000       26.6442127      -1.57079601    
   3.93283010       3.01776695      -4.00000000       26.6643696      -1.57079601    
   3.93283010       3.01776695      -3.00000000       26.6643696      -1.57079601    
   4.33012676       2.50000000      -3.00000000       26.6643696      -1.57079601    
   4.33012676       2.50000000      -4.00000000       26.6643696      -1.57079601    
   3.93283010       3.01776695      -3.00000000       26.6560268      -1.57079601    
   3.93283010       3.01776695      -2.00000000       26.6560268      -1.57079601    
   4.33012676       2.50000000      -2.00000000       26.6560268      -1.57079601    
   4.33012676       2.50000000      -3.00000000       26.6560268      -1.57079601    
   3.93283010       3.01776695      -2.00000000       26.6611729      -1.57079601    
   3.93283010       3.01776695      -1.00000000       26.6611729      -1.57079601    
   4.33012676       2.50000000      -1.00000000       26.6611729      -1.57079601    
   4.33012676       2.50000000      -2.00000000       26.6611729      -1.57079601    
   3.93283010       3.01776695      -1.00000000       26.5238667      -1.57079589    
   3.93283010       3.01776695       0.00000000       26.5238667      -1.57079589    
   4.33012676       2.50000000       0.00000000       26.5238667      -1.57079589    
   4.33012676       2.50000000      -1.00000000       26.5238667      -1.57079589    
   2.50000000       4.33012676      -10.0000000       26.0565166       1.57079649    
   2.50000000       4.33012676      -9.00000000       26.0565166       1.57079649    
   3.01776695       3.93283010      -9.00000000       26.0565166       1.57079649    
   3.01776695       3.93283010      -10.0000000       26.0565166       1.57079649    
   2.50000000       4.33012676      -9.00000000       26.6469860       1.57079649    
   2.50000000       4.33012676      -8.00000000       26.6469860       1.57079649    
   3.01776695       3.93283010      -8.00000000       26.6469860       1.57079649    
   3.01776695       3.93283010      -9.00000000       26.6469860       1.57079649    
   2.50000000       4.33012676      -8.00000000       26.6503162       1.57079649    
   2.50000000       4.33012676      -7.00000000       26.6503162       1.57079649    
   3.01776695       3.93283010      -7.00000000       26.6503162       1.57079649    
   3.01776695       3.93283010      -8.00000000       26.6503162       1.57079649    
   2.50000000       4.33012676      -7.00000000       26.6546268       1.57079661    
   2.50000000       4.33012676      -6.00000000       26.6546268       1.57079661    
   3.01776695       3.93283010      -6.00000000       26.6546268       1.57079661    
   3.01776695       3.93283010      -7.00000000       26.6546268       1.57079661    
   2.50000000       4.33012676      -6.00000000       26.6443100       1.57079685    
   2.50000000       4.33012676      -5.00000000       26.6443100       1.57079685    
   3.01776695       3.93283010      -5.00000000       26.6443100       1.57079685    
   3.01776695       3.93283010      -6.00000000       26.6443100       1.57079685    
   2.50000000       4.33012676      -5.00000000       26.6442719       1.57079661    
   2.50000000       4.33012676      -4.00000000       26.6442719       1.57079661    
   3.01776695       3.93283010      -4.00000000       26.6442719       1.57079661    
   3.01776695       3.93283010      -5.00000000       26.6442719       1.57079661    
   2.50000000       4.33012676      -4.00000000       26.6645164       1.57079673    
   2.50000000       4.33012676      -3.00000000       26.6645164       1.57079673    
   3.01776695       3.93283010      -3.00000000       26.6645164       1.57079673    
   3.01776695       3.93283010      -4.00000000       26.6645164       1.57079673    
   2.50000000       4.33012676      -3.00000000       26.6561813       1.57079673    
   2.50000000       4.33012676      -2.00000000       26.6561813       1.57079673    
   3.01776695       3.93283010      -2.00000000       26.6561813       1.57079673    
   3.01776695       3.93283010      -3.00000000       26.6561813       1.57079673    
   2.50000000       4.33012676      -2.00000000       26.6613712       1.57079661    
   2.50000000       4.33012676      -1.00000000       26.6613712       1.57079661    
   3.01776695       3.93283010      -1.00000000       26.6613712       1.57079661    
   3.01776695       3.93283010      -2.00000000       26.6613712       1.57079661    
   2.50000000       4.33012676      -1.00000000       26.5239868       1.57079649    
   2.50000000       4.33012676       0.00000000       26.5239868       1.57079649    
   3.01776695       3.93283010       0.00000000       26.5239868       1.57079649    
   3.01776695       3.93283010      -1.00000000       26.5239868       1.57079649    
   3.01776695       3.93283010      -10.0000000       26.0566139      -1.57079637    
   3.01776695       3.93283010      -9.00000000       26.0566139      -1.57079637    
   3.53553391       3.53553391      -9.00000000       26.0566139      -1.57079637    
   3.53553391       3.53553391      -10.0000000       26.0566139      -1.57079637    
   3.01776695       3.93283010      -9.00000000       26.6471252      -1.57079625    
   3.01776695       3.93283010      -8.00000000       26.6471252      -1.57079625    
   3.53553391       3.53553391      -8.00000000       26.6471252      -1.57079625    
   3.53553391       3.53553391      -9.00000000       26.6471252      -1.57079625    
   3.01776695       3.93283010      -8.00000000       26.6503963      -1.57079637    
   3.01776695       3.93283010      -7.00000000       26.6503963      -1.57079637    
   3.53553391       3.53553391      -7.00000000       26.6503963      -1.57079637    
   3.53553391       3.53553391      -8.00000000       26.6503963      -1.57079637    
   3.01776695       3.93283010      -7.00000000       26.6547184      -1.57079625    
   3.01776695       3.93283010      -6.00000000       26.6547184      -1.57079625    
   3.53553391       3.53553391      -6.00000000       26.6547184      -1.57079625    
   3.53553391       3.53553391      -7.00000000       26.6547184      -1.57079625    
   3.01776695       3.93283010      -6.00000000       26.6445293      -1.57079589    
   3.01776695       3.93283010      -5.00000000       26.6445293      -1.57079589    
   3.53553391       3.53553391      -5.00000000       26.6445293      -1.57079589    
   3.53553391       3.53553391      -6.00000000       26.6445293      -1.57079589    
   3.01776695       3.93283010      -5.00000000       26.6443424      -1.57079601    
   3.01776695       3.93283010      -4.00000000       26.6443424      -1.57079601    
   3.53553391       3.53553391      -4.00000000       26.6443424      -1.57079601    
   3.53553391       3.53553391      -5.00000000       26.6443424      -1.57079601    
   3.01776695       3.93283010      -4.00000000       26.6644707      -1.57079613    
   3.01776695       3.93283010      -3.00000000       26.6644707      -1.57079613    
   3.53553391       3.53553391      -3.00000000       26.6644707      -1.57079613    
   3.53553391       3.53553391      -4.00000000       26.6644707      -1.57079613    
   3.01776695       3.93283010      -3.00000000       26.6562042      -1.57079625    
   3.01776695       3.93283010      -2.00000000       26.6562042      -1.57079625    
   3.53553391       3.53553391      -2.00000000       26.6562042      -1.57079625    
   3.53553391       3.53553391      -3.00000000       26.6562042      -1.57079625    
   3.01776695       3.93283010      -2.00000000       26.6613274      -1.57079613    
   3.01776695       3.93283010      -1.00000000       26.6613274      -1.57079613    
   3.53553391       3.53553391      -1.00000000       26.6613274      -1.57079613    
   3.53553391       3.53553391      -2.00000000       26.6613274      -1.57079613    
   3.01776695       3.93283010      -1.00000000       26.5239277      -1.57079601    
   3.01776695       3.93283010       0.00000000       26.5239277      -1.57079601    
   3.53553391       3.53553391       0.00000000       26.5239277      -1.57079601    
   3.53553391       3.53553391      -1.00000000       26.5239277      -1.57079601    
   1.29409504       4.82962894      -10.0000000       26.0567322       1.57079649    
   1.29409504       4.82962894      -9.00000000       26.0567322       1.57079649    
   1.89704800       4.57987785      -9.00000000       26.0567322       1.57079649    
   1.89704800       4.57987785      -10.0000000       26.0567322       1.57079649    
   1.29409504       4.82962894      -9.00000000       26.6472778       1.57079637    
   1.29409504       4.82962894      -8.00000000       26.6472778       1.57079637    
   1.89704800       4.57987785      -8.00000000       26.6472778       1.57079637    
   1.89704800       4.57987785      -9.00000000       26.6472778       1.57079637    
   1.29409504       4.82962894      -8.00000000       26.6505051       1.57079649    
   1.29409504       4.82962894      -7.00000000       26.6505051       1.57079649    
   1.89704800       4.57987785      -7.00000000       26.6505051       1.57079649    
   1.89704800       4.57987785      -8.00000000       26.6505051       1.57079649    
   1.29409504       4.82962894      -7.00000000       26.6548729       1.57079649    
   1.29409504       4.82962894      -6.00000000       26.6548729       1.57079649    
   1.89704800       4.57987785      -6.00000000       26.6548729       1.57079649    
   1.89704800       4.57987785      -7.00000000       26.6548729       1.57079649    
   1.29409504       4.82962894      -6.00000000       26.6446495       1.57079661    
   1.29409504       4.82962894      -5.00000000       26.6446495       1.57079661    
   1.89704800       4.57987785      -5.00000000       26.6446495       1.57079661    
   1.89704800       4.57987785      -6.00000000       26.6446495       1.57079661    
   1.29409504       4.82962894      -5.00000000       26.6446018       1.57079661    
   1.29409504       4.82962894      -4.00000000       26.6446018       1.57079661    
   1.89704800       4.57987785      -4.00000000       26.6446018       1.57079661    
   1.89704800       4.57987785      -5.00000000       26.6446018       1.57079661    
   1.29409504       4.82962894      -4.00000000       26.6647396       1.57079661    
   1.29409504       4.82962894      -3.00000000       26.6647396       1.57079661    
   1.89704800       4.57987785      -3.00000000       26.6647396       1.57079661    