 VARIABLES="X" "Y" "Z" "abs(p) (Pa)" "angle(p) (rad)"
ZONE N=   1080,E =     600, F=FEPOINT, ET=QUADRILATERAL
   4.82962894       1.29409504      -10.0000000       2377.89233      -1.42944372    
   4.82962894       1.29409504      -9.00000000       2377.89233      -1.42944372    
   4.91481400      0.647047520      -9.00000000       2377.89233      -1.42944372    
   4.91481400      0.647047520      -10.0000000       2377.89233      -1.42944372    
   4.82962894       1.29409504      -9.00000000       2990.73438      -1.43909347    
   4.82962894       1.29409504      -8.00000000       2990.73438      -1.43909347    
   4.91481400      0.647047520      -8.00000000       2990.73438      -1.43909347    
   4.91481400      0.647047520      -9.00000000       2990.73438      -1.43909347    
   4.82962894       1.29409504      -8.00000000       3371.58301      -1.43999684    
   4.82962894       1.29409504      -7.00000000       3371.58301      -1.43999684    
   4.91481400      0.647047520      -7.00000000       3371.58301      -1.43999684    
   4.91481400      0.647047520      -8.00000000       3371.58301      -1.43999684    
   4.82962894       1.29409504      -7.00000000       3662.12500      -1.43821049    
   4.82962894       1.29409504      -6.00000000       3662.12500      -1.43821049    
   4.91481400      0.647047520      -6.00000000       3662.12500      -1.43821049    
   4.91481400      0.647047520      -7.00000000       3662.12500      -1.43821049    
   4.82962894       1.29409504      -6.00000000       3907.16724      -1.43517828    
   4.82962894       1.29409504      -5.00000000       3907.16724      -1.43517828    
   4.91481400      0.647047520      -5.00000000       3907.16724      -1.43517828    
   4.91481400      0.647047520      -6.00000000       3907.16724      -1.43517828    
   4.82962894       1.29409504      -5.00000000       4130.56445      -1.43154299    
   4.82962894       1.29409504      -4.00000000       4130.56445      -1.43154299    
   4.91481400      0.647047520      -4.00000000       4130.56445      -1.43154299    
   4.91481400      0.647047520      -5.00000000       4130.56445      -1.43154299    
   4.82962894       1.29409504      -4.00000000       4347.55469      -1.42769349    
   4.82962894       1.29409504      -3.00000000       4347.55469      -1.42769349    
   4.91481400      0.647047520      -3.00000000       4347.55469      -1.42769349    
   4.91481400      0.647047520      -4.00000000       4347.55469      -1.42769349    
   4.82962894       1.29409504      -3.00000000       4570.65625      -1.42395234    
   4.82962894       1.29409504      -2.00000000       4570.65625      -1.42395234    
   4.91481400      0.647047520      -2.00000000       4570.65625      -1.42395234    
   4.91481400      0.647047520      -3.00000000       4570.65625      -1.42395234    
   4.82962894       1.29409504      -2.00000000       4814.51709      -1.42069352    
   4.82962894       1.29409504      -1.00000000       4814.51709      -1.42069352    
   4.91481400      0.647047520      -1.00000000       4814.51709      -1.42069352    
   4.91481400      0.647047520      -2.00000000       4814.51709      -1.42069352    
   4.82962894       1.29409504      -1.00000000       5097.95654      -1.41843998    
   4.82962894       1.29409504       0.00000000       5097.95654      -1.41843998    
   4.91481400      0.647047520       0.00000000       5097.95654      -1.41843998    
   4.91481400      0.647047520      -1.00000000       5097.95654      -1.41843998    
   4.91481400      0.647047520      -10.0000000       2414.25195      -1.42924905    
   4.91481400      0.647047520      -9.00000000       2414.25195      -1.42924905    
   5.00000000       0.00000000      -9.00000000       2414.25195      -1.42924905    
   5.00000000       0.00000000      -10.0000000       2414.25195      -1.42924905    
   4.91481400      0.647047520      -9.00000000       3037.06470      -1.43894398    
   4.91481400      0.647047520      -8.00000000       3037.06470      -1.43894398    
   5.00000000       0.00000000      -8.00000000       3037.06470      -1.43894398    
   5.00000000       0.00000000      -9.00000000       3037.06470      -1.43894398    
   4.91481400      0.647047520      -8.00000000       3424.22461      -1.43986475    
   4.91481400      0.647047520      -7.00000000       3424.22461      -1.43986475    
   5.00000000       0.00000000      -7.00000000       3424.22461      -1.43986475    
   5.00000000       0.00000000      -8.00000000       3424.22461      -1.43986475    
   4.91481400      0.647047520      -7.00000000       3719.59033      -1.43808711    
   4.91481400      0.647047520      -6.00000000       3719.59033      -1.43808711    
   5.00000000       0.00000000      -6.00000000       3719.59033      -1.43808711    
   5.00000000       0.00000000      -7.00000000       3719.59033      -1.43808711    
   4.91481400      0.647047520      -6.00000000       3968.70288      -1.43506026    
   4.91481400      0.647047520      -5.00000000       3968.70288      -1.43506026    
   5.00000000       0.00000000      -5.00000000       3968.70288      -1.43506026    
   5.00000000       0.00000000      -6.00000000       3968.70288      -1.43506026    
   4.91481400      0.647047520      -5.00000000       4195.81152      -1.43142784    
   4.91481400      0.647047520      -4.00000000       4195.81152      -1.43142784    
   5.00000000       0.00000000      -4.00000000       4195.81152      -1.43142784    
   5.00000000       0.00000000      -5.00000000       4195.81152      -1.43142784    
   4.91481400      0.647047520      -4.00000000       4416.40869      -1.42758155    
   4.91481400      0.647047520      -3.00000000       4416.40869      -1.42758155    
   5.00000000       0.00000000      -3.00000000       4416.40869      -1.42758155    
   5.00000000       0.00000000      -4.00000000       4416.40869      -1.42758155    
   4.91481400      0.647047520      -3.00000000       4643.21729      -1.42384231    
   4.91481400      0.647047520      -2.00000000       4643.21729      -1.42384231    
   5.00000000       0.00000000      -2.00000000       4643.21729      -1.42384231    
   5.00000000       0.00000000      -3.00000000       4643.21729      -1.42384231    
   4.91481400      0.647047520      -2.00000000       4891.13135      -1.42058718    
   4.91481400      0.647047520      -1.00000000       4891.13135      -1.42058718    
   5.00000000       0.00000000      -1.00000000       4891.13135      -1.42058718    
   5.00000000       0.00000000      -2.00000000       4891.13135      -1.42058718    
   4.91481400      0.647047520      -1.00000000       5179.31836      -1.41833794    
   4.91481400      0.647047520       0.00000000       5179.31836      -1.41833794    
   5.00000000       0.00000000       0.00000000       5179.31836      -1.41833794    
   5.00000000       0.00000000      -1.00000000       5179.31836      -1.41833794    
   4.33012676       2.50000000      -10.0000000       2179.48438      -1.42965901    
   4.33012676       2.50000000      -9.00000000       2179.48438      -1.42965901    
   4.57987785       1.89704800      -9.00000000       2179.48438      -1.42965901    
   4.57987785       1.89704800      -10.0000000       2179.48438      -1.42965901    
   4.33012676       2.50000000      -9.00000000       2740.59351      -1.43925893    
   4.33012676       2.50000000      -8.00000000       2740.59351      -1.43925893    
   4.57987785       1.89704800      -8.00000000       2740.59351      -1.43925893    
   4.57987785       1.89704800      -9.00000000       2740.59351      -1.43925893    
   4.33012676       2.50000000      -8.00000000       3089.17163      -1.44014287    
   4.33012676       2.50000000      -7.00000000       3089.17163      -1.44014287    
   4.57987785       1.89704800      -7.00000000       3089.17163      -1.44014287    
   4.57987785       1.89704800      -8.00000000       3089.17163      -1.44014287    
   4.33012676       2.50000000      -7.00000000       3355.09668      -1.43834722    
   4.33012676       2.50000000      -6.00000000       3355.09668      -1.43834722    
   4.57987785       1.89704800      -6.00000000       3355.09668      -1.43834722    
   4.57987785       1.89704800      -7.00000000       3355.09668      -1.43834722    
   4.33012676       2.50000000      -6.00000000       3579.36475      -1.43530953    
   4.33012676       2.50000000      -5.00000000       3579.36475      -1.43530953    
   4.57987785       1.89704800      -5.00000000       3579.36475      -1.43530953    
   4.57987785       1.89704800      -6.00000000       3579.36475      -1.43530953    
   4.33012676       2.50000000      -5.00000000       3783.83105      -1.43167067    
   4.33012676       2.50000000      -4.00000000       3783.83105      -1.43167067    
   4.57987785       1.89704800      -4.00000000       3783.83105      -1.43167067    
   4.57987785       1.89704800      -5.00000000       3783.83105      -1.43167067    
   4.33012676       2.50000000      -4.00000000       3982.42749      -1.42781794    
   4.33012676       2.50000000      -3.00000000       3982.42749      -1.42781794    
   4.57987785       1.89704800      -3.00000000       3982.42749      -1.42781794    
   4.57987785       1.89704800      -4.00000000       3982.42749      -1.42781794    
   4.33012676       2.50000000      -3.00000000       4186.61426      -1.42407405    
   4.33012676       2.50000000      -2.00000000       4186.61426      -1.42407405    
   4.57987785       1.89704800      -2.00000000       4186.61426      -1.42407405    
   4.57987785       1.89704800      -3.00000000       4186.61426      -1.42407405    
   4.33012676       2.50000000      -2.00000000       4409.79932      -1.42081213    
   4.33012676       2.50000000      -1.00000000       4409.79932      -1.42081213    
   4.57987785       1.89704800      -1.00000000       4409.79932      -1.42081213    
   4.57987785       1.89704800      -2.00000000       4409.79932      -1.42081213    
   4.33012676       2.50000000      -1.00000000       4669.16992      -1.41855288    
   4.33012676       2.50000000       0.00000000       4669.16992      -1.41855288    
   4.57987785       1.89704800       0.00000000       4669.16992      -1.41855288    
   4.57987785       1.89704800      -1.00000000       4669.16992      -1.41855288    
   4.57987785       1.89704800      -10.0000000       2286.08325      -1.42904711    
   4.57987785       1.89704800      -9.00000000       2286.08325      -1.42904711    
   4.82962894       1.29409504      -9.00000000       2286.08325      -1.42904711    
   4.82962894       1.29409504      -10.0000000       2286.08325      -1.42904711    
   4.57987785       1.89704800      -9.00000000       2876.41846      -1.43878853    
   4.57987785       1.89704800      -8.00000000       2876.41846      -1.43878853    
   4.82962894       1.29409504      -8.00000000       2876.41846      -1.43878853    
   4.82962894       1.29409504      -9.00000000       2876.41846      -1.43878853    
   4.57987785       1.89704800      -8.00000000       3243.51318      -1.43972743    
   4.57987785       1.89704800      -7.00000000       3243.51318      -1.43972743    
   4.82962894       1.29409504      -7.00000000       3243.51318      -1.43972743    
   4.82962894       1.29409504      -8.00000000       3243.51318      -1.43972743    
   4.57987785       1.89704800      -7.00000000       3523.56763      -1.43795860    
   4.57987785       1.89704800      -6.00000000       3523.56763      -1.43795860    
   4.82962894       1.29409504      -6.00000000       3523.56763      -1.43795860    
   4.82962894       1.29409504      -7.00000000       3523.56763      -1.43795860    
   4.57987785       1.89704800      -6.00000000       3759.77930      -1.43493688    
   4.57987785       1.89704800      -5.00000000       3759.77930      -1.43493688    
   4.82962894       1.29409504      -5.00000000       3759.77930      -1.43493688    
   4.82962894       1.29409504      -6.00000000       3759.77930      -1.43493688    
   4.57987785       1.89704800      -5.00000000       3975.12256      -1.43130839    
   4.57987785       1.89704800      -4.00000000       3975.12256      -1.43130839    
   4.82962894       1.29409504      -4.00000000       3975.12256      -1.43130839    
   4.82962894       1.29409504      -5.00000000       3975.12256      -1.43130839    
   4.57987785       1.89704800      -4.00000000       4184.28711      -1.42746425    
   4.57987785       1.89704800      -3.00000000       4184.28711      -1.42746425    
   4.82962894       1.29409504      -3.00000000       4184.28711      -1.42746425    
   4.82962894       1.29409504      -4.00000000       4184.28711      -1.42746425    
   4.57987785       1.89704800      -3.00000000       4399.35449      -1.42372870    
   4.57987785       1.89704800      -2.00000000       4399.35449      -1.42372870    
   4.82962894       1.29409504      -2.00000000       4399.35449      -1.42372870    
   4.82962894       1.29409504      -3.00000000       4399.35449      -1.42372870    
   4.57987785       1.89704800      -2.00000000       4634.42188      -1.42047620    
   4.57987785       1.89704800      -1.00000000       4634.42188      -1.42047620    
   4.82962894       1.29409504      -1.00000000       4634.42188      -1.42047620    
   4.82962894       1.29409504      -2.00000000       4634.42188      -1.42047620    
   4.57987785       1.89704800      -1.00000000       4907.72314      -1.41823220    
   4.57987785       1.89704800       0.00000000       4907.72314      -1.41823220    
   4.82962894       1.29409504       0.00000000       4907.72314      -1.41823220    
   4.82962894       1.29409504      -1.00000000       4907.72314      -1.41823220    
   3.53553391       3.53553391      -10.0000000       1832.54871      -1.42993844    
   3.53553391       3.53553391      -9.00000000       1832.54871      -1.42993844    
   3.93283010       3.01776695      -9.00000000       1832.54871      -1.42993844    
   3.93283010       3.01776695      -10.0000000       1832.54871      -1.42993844    
   3.53553391       3.53553391      -9.00000000       2303.68604      -1.43947387    
   3.53553391       3.53553391      -8.00000000       2303.68604      -1.43947387    
   3.93283010       3.01776695      -8.00000000       2303.68604      -1.43947387    
   3.93283010       3.01776695      -9.00000000       2303.68604      -1.43947387    
   3.53553391       3.53553391      -8.00000000       2596.24170      -1.44033289    
   3.53553391       3.53553391      -7.00000000       2596.24170      -1.44033289    
   3.93283010       3.01776695      -7.00000000       2596.24170      -1.44033289    
   3.93283010       3.01776695      -8.00000000       2596.24170      -1.44033289    
   3.53553391       3.53553391      -7.00000000       2819.42212      -1.43852496    
   3.53553391       3.53553391      -6.00000000       2819.42212      -1.43852496    
   3.93283010       3.01776695      -6.00000000       2819.42212      -1.43852496    
   3.93283010       3.01776695      -7.00000000       2819.42212      -1.43852496    
   3.53553391       3.53553391      -6.00000000       3007.63281      -1.43547964    
   3.53553391       3.53553391      -5.00000000       3007.63281      -1.43547964    
   3.93283010       3.01776695      -5.00000000       3007.63281      -1.43547964    
   3.93283010       3.01776695      -6.00000000       3007.63281      -1.43547964    
   3.53553391       3.53553391      -5.00000000       3179.22852      -1.43183613    
   3.53553391       3.53553391      -4.00000000       3179.22852      -1.43183613    
   3.93283010       3.01776695      -4.00000000       3179.22852      -1.43183613    
   3.93283010       3.01776695      -5.00000000       3179.22852      -1.43183613    
   3.53553391       3.53553391      -4.00000000       3345.90430      -1.42798030    
   3.53553391       3.53553391      -3.00000000       3345.90430      -1.42798030    
   3.93283010       3.01776695      -3.00000000       3345.90430      -1.42798030    
   3.93283010       3.01776695      -4.00000000       3345.90430      -1.42798030    
   3.53553391       3.53553391      -3.00000000       3517.25830      -1.42423224    
   3.53553391       3.53553391      -2.00000000       3517.25830      -1.42423224    
   3.93283010       3.01776695      -2.00000000       3517.25830      -1.42423224    
   3.93283010       3.01776695      -3.00000000       3517.25830      -1.42423224    
   3.53553391       3.53553391      -2.00000000       3704.56641      -1.42096555    
   3.53553391       3.53553391      -1.00000000       3704.56641      -1.42096555    
   3.93283010       3.01776695      -1.00000000       3704.56641      -1.42096555    
   3.93283010       3.01776695      -2.00000000       3704.56641      -1.42096555    
   3.53553391       3.53553391      -1.00000000       3922.19165      -1.41869986    
   3.53553391       3.53553391       0.00000000       3922.19165      -1.41869986    
   3.93283010       3.01776695       0.00000000       3922.19165      -1.41869986    
   3.93283010       3.01776695      -1.00000000       3922.19165      -1.41869986    
   3.93283010       3.01776695      -10.0000000       2002.12439      -1.42880332    
   3.93283010       3.01776695      -9.00000000       2002.12439      -1.42880332    
   4.33012676       2.50000000      -9.00000000       2002.12439      -1.42880332    
   4.33012676       2.50000000      -10.0000000       2002.12439      -1.42880332    
   3.93283010       3.01776695      -9.00000000       2519.75195      -1.43860102    
   3.93283010       3.01776695      -8.00000000       2519.75195      -1.43860102    
   4.33012676       2.50000000      -8.00000000       2519.75195      -1.43860102    
   4.33012676       2.50000000      -9.00000000       2519.75195      -1.43860102    
   3.93283010       3.01776695      -8.00000000       2841.76221      -1.43956196    
   3.93283010       3.01776695      -7.00000000       2841.76221      -1.43956196    
   4.33012676       2.50000000      -7.00000000       2841.76221      -1.43956196    
   4.33012676       2.50000000      -8.00000000       2841.76221      -1.43956196    
   3.93283010       3.01776695      -7.00000000       3087.42236      -1.43780375    
   3.93283010       3.01776695      -6.00000000       3087.42236      -1.43780375    
   4.33012676       2.50000000      -6.00000000       3087.42236      -1.43780375    
   4.33012676       2.50000000      -7.00000000       3087.42236      -1.43780375    
   3.93283010       3.01776695      -6.00000000       3294.63257      -1.43478847    
   3.93283010       3.01776695      -5.00000000       3294.63257      -1.43478847    
   4.33012676       2.50000000      -5.00000000       3294.63257      -1.43478847    
   4.33012676       2.50000000      -6.00000000       3294.63257      -1.43478847    
   3.93283010       3.01776695      -5.00000000       3483.53101      -1.43116462    
   3.93283010       3.01776695      -4.00000000       3483.53101      -1.43116462    
   4.33012676       2.50000000      -4.00000000       3483.53101      -1.43116462    
   4.33012676       2.50000000      -5.00000000       3483.53101      -1.43116462    
   3.93283010       3.01776695      -4.00000000       3667.01221      -1.42732322    
   3.93283010       3.01776695      -3.00000000       3667.01221      -1.42732322    
   4.33012676       2.50000000      -3.00000000       3667.01221      -1.42732322    
   4.33012676       2.50000000      -4.00000000       3667.01221      -1.42732322    
   3.93283010       3.01776695      -3.00000000       3855.67822      -1.42359149    
   3.93283010       3.01776695      -2.00000000       3855.67822      -1.42359149    
   4.33012676       2.50000000      -2.00000000       3855.67822      -1.42359149    
   4.33012676       2.50000000      -3.00000000       3855.67822      -1.42359149    
   3.93283010       3.01776695      -2.00000000       4061.88525      -1.42034304    
   3.93283010       3.01776695      -1.00000000       4061.88525      -1.42034304    
   4.33012676       2.50000000      -1.00000000       4061.88525      -1.42034304    
   4.33012676       2.50000000      -2.00000000       4061.88525      -1.42034304    
   3.93283010       3.01776695      -1.00000000       4301.67676      -1.41810513    
   3.93283010       3.01776695       0.00000000       4301.67676      -1.41810513    
   4.33012676       2.50000000       0.00000000       4301.67676      -1.41810513    
   4.33012676       2.50000000      -1.00000000       4301.67676      -1.41810513    
   2.50000000       4.33012676      -10.0000000       1360.72717      -1.43038583    
   2.50000000       4.33012676      -9.00000000       1360.72717      -1.43038583    
   3.01776695       3.93283010      -9.00000000       1360.72717      -1.43038583    
   3.01776695       3.93283010      -10.0000000       1360.72717      -1.43038583    
   2.50000000       4.33012676      -9.00000000       1709.78662      -1.43981910    
   2.50000000       4.33012676      -8.00000000       1709.78662      -1.43981910    
   3.01776695       3.93283010      -8.00000000       1709.78662      -1.43981910    
   3.01776695       3.93283010      -9.00000000       1709.78662      -1.43981910    
   2.50000000       4.33012676      -8.00000000       1926.37598      -1.44063747    
   2.50000000       4.33012676      -7.00000000       1926.37598      -1.44063747    
   3.01776695       3.93283010      -7.00000000       1926.37598      -1.44063747    
   3.01776695       3.93283010      -8.00000000       1926.37598      -1.44063747    
   2.50000000       4.33012676      -7.00000000       2091.60986      -1.43881035    
   2.50000000       4.33012676      -6.00000000       2091.60986      -1.43881035    
   3.01776695       3.93283010      -6.00000000       2091.60986      -1.43881035    
   3.01776695       3.93283010      -7.00000000       2091.60986      -1.43881035    
   2.50000000       4.33012676      -6.00000000       2230.93701      -1.43575346    
   2.50000000       4.33012676      -5.00000000       2230.93701      -1.43575346    
   3.01776695       3.93283010      -5.00000000       2230.93701      -1.43575346    
   3.01776695       3.93283010      -6.00000000       2230.93701      -1.43575346    
   2.50000000       4.33012676      -5.00000000       2357.97095      -1.43210208    
   2.50000000       4.33012676      -4.00000000       2357.97095      -1.43210208    
   3.01776695       3.93283010      -4.00000000       2357.97095      -1.43210208    
   3.01776695       3.93283010      -5.00000000       2357.97095      -1.43210208    
   2.50000000       4.33012676      -4.00000000       2481.36035      -1.42824018    
   2.50000000       4.33012676      -3.00000000       2481.36035      -1.42824018    
   3.01776695       3.93283010      -3.00000000       2481.36035      -1.42824018    
   3.01776695       3.93283010      -4.00000000       2481.36035      -1.42824018    
   2.50000000       4.33012676      -3.00000000       2608.20947      -1.42448592    
   2.50000000       4.33012676      -2.00000000       2608.20947      -1.42448592    
   3.01776695       3.93283010      -2.00000000       2608.20947      -1.42448592    
   3.01776695       3.93283010      -3.00000000       2608.20947      -1.42448592    
   2.50000000       4.33012676      -2.00000000       2746.86743      -1.42121220    
   2.50000000       4.33012676      -1.00000000       2746.86743      -1.42121220    
   3.01776695       3.93283010      -1.00000000       2746.86743      -1.42121220    
   3.01776695       3.93283010      -2.00000000       2746.86743      -1.42121220    
   2.50000000       4.33012676      -1.00000000       2907.92139      -1.41893530    
   2.50000000       4.33012676       0.00000000       2907.92139      -1.41893530    
   3.01776695       3.93283010       0.00000000       2907.92139      -1.41893530    
   3.01776695       3.93283010      -1.00000000       2907.92139      -1.41893530    
   3.01776695       3.93283010      -10.0000000       1581.71985      -1.42845082    
   3.01776695       3.93283010      -9.00000000       1581.71985      -1.42845082    
   3.53553391       3.53553391      -9.00000000       1581.71985      -1.42845082    
   3.53553391       3.53553391      -10.0000000       1581.71985      -1.42845082    
   3.01776695       3.93283010      -9.00000000       1991.36743      -1.43833053    
   3.01776695       3.93283010      -8.00000000       1991.36743      -1.43833053    
   3.53553391       3.53553391      -8.00000000       1991.36743      -1.43833053    
   3.53553391       3.53553391      -9.00000000       1991.36743      -1.43833053    
   3.01776695       3.93283010      -8.00000000       2246.34717      -1.43932331    
   3.01776695       3.93283010      -7.00000000       2246.34717      -1.43932331    
   3.53553391       3.53553391      -7.00000000       2246.34717      -1.43932331    
   3.53553391       3.53553391      -8.00000000       2246.34717      -1.43932331    
   3.01776695       3.93283010      -7.00000000       2440.87231      -1.43758106    
   3.01776695       3.93283010      -6.00000000       2440.87231      -1.43758106    
   3.53553391       3.53553391      -6.00000000       2440.87231      -1.43758106    
   3.53553391       3.53553391      -7.00000000       2440.87231      -1.43758106    
   3.01776695       3.93283010      -6.00000000       2604.96240      -1.43457508    
   3.01776695       3.93283010      -5.00000000       2604.96240      -1.43457508    
   3.53553391       3.53553391      -5.00000000       2604.96240      -1.43457508    
   3.53553391       3.53553391      -6.00000000       2604.96240      -1.43457508    
   3.01776695       3.93283010      -5.00000000       2754.54639      -1.43095624    
   3.01776695       3.93283010      -4.00000000       2754.54639      -1.43095624    
   3.53553391       3.53553391      -4.00000000       2754.54639      -1.43095624    
   3.53553391       3.53553391      -5.00000000       2754.54639      -1.43095624    
   3.01776695       3.93283010      -4.00000000       2899.84082      -1.42712080    
   3.01776695       3.93283010      -3.00000000       2899.84082      -1.42712080    
   3.53553391       3.53553391      -3.00000000       2899.84082      -1.42712080    
   3.53553391       3.53553391      -4.00000000       2899.84082      -1.42712080    
   3.01776695       3.93283010      -3.00000000       3049.24365      -1.42339313    
   3.01776695       3.93283010      -2.00000000       3049.24365      -1.42339313    
   3.53553391       3.53553391      -2.00000000       3049.24365      -1.42339313    
   3.53553391       3.53553391      -3.00000000       3049.24365      -1.42339313    
   3.01776695       3.93283010      -2.00000000       3212.54077      -1.42015064    
   3.01776695       3.93283010      -1.00000000       3212.54077      -1.42015064    
   3.53553391       3.53553391      -1.00000000       3212.54077      -1.42015064    
   3.53553391       3.53553391      -2.00000000       3212.54077      -1.42015064    
   3.01776695       3.93283010      -1.00000000       3402.47559      -1.41792095    
   3.01776695       3.93283010       0.00000000       3402.47559      -1.41792095    
   3.53553391       3.53553391       0.00000000       3402.47559      -1.41792095    
   3.53553391       3.53553391      -1.00000000       3402.47559      -1.41792095    
   1.29409504       4.82962894      -10.0000000       796.174744      -1.43141639    
   1.29409504       4.82962894      -9.00000000       796.174744      -1.43141639    
   1.89704800       4.57987785      -9.00000000       796.174744      -1.43141639    
   1.89704800       4.57987785      -10.0000000       796.174744      -1.43141639    
   1.29409504       4.82962894      -9.00000000       999.367798      -1.44061351    
   1.29409504       4.82962894      -8.00000000       999.367798      -1.44061351    
   1.89704800       4.57987785      -8.00000000       999.367798      -1.44061351    
   1.89704800       4.57987785      -9.00000000       999.367798      -1.44061351    
   1.29409504       4.82962894      -8.00000000       1125.23645      -1.44134152    
   1.29409504       4.82962894      -7.00000000       1125.23645      -1.44134152    
   1.89704800       4.57987785      -7.00000000       1125.23645      -1.44134152    
   1.89704800       4.57987785      -8.00000000       1125.23645      -1.44134152    
   1.29409504       4.82962894      -7.00000000       1221.25537      -1.43946874    
   1.29409504       4.82962894      -6.00000000       1221.25537      -1.43946874    
   1.89704800       4.57987785      -6.00000000       1221.25537      -1.43946874    
   1.89704800       4.57987785      -7.00000000       1221.25537      -1.43946874    
   1.29409504       4.82962894      -6.00000000       1302.20618      -1.43638551    
   1.29409504       4.82962894      -5.00000000       1302.20618      -1.43638551    
   1.89704800       4.57987785      -5.00000000       1302.20618      -1.43638551    
   1.89704800       4.57987785      -6.00000000       1302.20618      -1.43638551    
   1.29409504       4.82962894      -5.00000000       1376.02173      -1.43271732    
   1.29409504       4.82962894      -4.00000000       1376.02173      -1.43271732    
   1.89704800       4.57987785      -4.00000000       1376.02173      -1.43271732    
   1.89704800       4.57987785      -5.00000000       1376.02173      -1.43271732    
   1.29409504       4.82962894      -4.00000000       1447.71655      -1.42884171    
   1.29409504       4.82962894      -3.00000000       1447.71655      -1.42884171    
   1.89704800       4.57987785      -3.00000000       1447.71655      -1.42884171    