 VARIABLES="X" "Y" "Z" "abs(p) (Pa)" "angle(p) (rad)"
ZONE N=   1080,E =     600, F=FEPOINT, ET=QUADRILATERAL
   4.82962894       1.29409504      -10.0000000       5049.32471     -0.782605946    
   4.82962894       1.29409504      -9.00000000       5049.32471     -0.782605946    
   4.91481400      0.647047520      -9.00000000       5049.32471     -0.782605946    
   4.91481400      0.647047520      -10.0000000       5049.32471     -0.782605946    
   4.82962894       1.29409504      -9.00000000       6387.23193     -0.810502231    
   4.82962894       1.29409504      -8.00000000       6387.23193     -0.810502231    
   4.91481400      0.647047520      -8.00000000       6387.23193     -0.810502231    
   4.91481400      0.647047520      -9.00000000       6387.23193     -0.810502231    
   4.82962894       1.29409504      -8.00000000       8743.32324     -0.941230416    
   4.82962894       1.29409504      -7.00000000       8743.32324     -0.941230416    
   4.91481400      0.647047520      -7.00000000       8743.32324     -0.941230416    
   4.91481400      0.647047520      -8.00000000       8743.32324     -0.941230416    
   4.82962894       1.29409504      -7.00000000       11736.6807      -1.04238117    
   4.82962894       1.29409504      -6.00000000       11736.6807      -1.04238117    
   4.91481400      0.647047520      -6.00000000       11736.6807      -1.04238117    
   4.91481400      0.647047520      -7.00000000       11736.6807      -1.04238117    
   4.82962894       1.29409504      -6.00000000       15179.7285      -1.11060858    
   4.82962894       1.29409504      -5.00000000       15179.7285      -1.11060858    
   4.91481400      0.647047520      -5.00000000       15179.7285      -1.11060858    
   4.91481400      0.647047520      -6.00000000       15179.7285      -1.11060858    
   4.82962894       1.29409504      -5.00000000       18945.5020      -1.15561783    
   4.82962894       1.29409504      -4.00000000       18945.5020      -1.15561783    
   4.91481400      0.647047520      -4.00000000       18945.5020      -1.15561783    
   4.91481400      0.647047520      -5.00000000       18945.5020      -1.15561783    
   4.82962894       1.29409504      -4.00000000       22948.9648      -1.18508124    
   4.82962894       1.29409504      -3.00000000       22948.9648      -1.18508124    
   4.91481400      0.647047520      -3.00000000       22948.9648      -1.18508124    
   4.91481400      0.647047520      -4.00000000       22948.9648      -1.18508124    
   4.82962894       1.29409504      -3.00000000       27132.2305      -1.20393145    
   4.82962894       1.29409504      -2.00000000       27132.2305      -1.20393145    
   4.91481400      0.647047520      -2.00000000       27132.2305      -1.20393145    
   4.91481400      0.647047520      -3.00000000       27132.2305      -1.20393145    
   4.82962894       1.29409504      -2.00000000       31448.3066      -1.21506608    
   4.82962894       1.29409504      -1.00000000       31448.3066      -1.21506608    
   4.91481400      0.647047520      -1.00000000       31448.3066      -1.21506608    
   4.91481400      0.647047520      -2.00000000       31448.3066      -1.21506608    
   4.82962894       1.29409504      -1.00000000       35824.4258      -1.22009087    
   4.82962894       1.29409504       0.00000000       35824.4258      -1.22009087    
   4.91481400      0.647047520       0.00000000       35824.4258      -1.22009087    
   4.91481400      0.647047520      -1.00000000       35824.4258      -1.22009087    
   4.91481400      0.647047520      -10.0000000       5138.84570     -0.783640504    
   4.91481400      0.647047520      -9.00000000       5138.84570     -0.783640504    
   5.00000000       0.00000000      -9.00000000       5138.84570     -0.783640504    
   5.00000000       0.00000000      -10.0000000       5138.84570     -0.783640504    
   4.91481400      0.647047520      -9.00000000       6496.49756     -0.810944736    
   4.91481400      0.647047520      -8.00000000       6496.49756     -0.810944736    
   5.00000000       0.00000000      -8.00000000       6496.49756     -0.810944736    
   5.00000000       0.00000000      -9.00000000       6496.49756     -0.810944736    
   4.91481400      0.647047520      -8.00000000       8888.60449     -0.941219151    
   4.91481400      0.647047520      -7.00000000       8888.60449     -0.941219151    
   5.00000000       0.00000000      -7.00000000       8888.60449     -0.941219151    
   5.00000000       0.00000000      -8.00000000       8888.60449     -0.941219151    
   4.91481400      0.647047520      -7.00000000       11927.9482      -1.04219019    
   4.91481400      0.647047520      -6.00000000       11927.9482      -1.04219019    
   5.00000000       0.00000000      -6.00000000       11927.9482      -1.04219019    
   5.00000000       0.00000000      -7.00000000       11927.9482      -1.04219019    
   4.91481400      0.647047520      -6.00000000       15424.1504      -1.11035132    
   4.91481400      0.647047520      -5.00000000       15424.1504      -1.11035132    
   5.00000000       0.00000000      -5.00000000       15424.1504      -1.11035132    
   5.00000000       0.00000000      -6.00000000       15424.1504      -1.11035132    
   4.91481400      0.647047520      -5.00000000       19248.3418      -1.15533841    
   4.91481400      0.647047520      -4.00000000       19248.3418      -1.15533841    
   5.00000000       0.00000000      -4.00000000       19248.3418      -1.15533841    
   5.00000000       0.00000000      -5.00000000       19248.3418      -1.15533841    
   4.91481400      0.647047520      -4.00000000       23314.0352      -1.18479323    
   4.91481400      0.647047520      -3.00000000       23314.0352      -1.18479323    
   5.00000000       0.00000000      -3.00000000       23314.0352      -1.18479323    
   5.00000000       0.00000000      -4.00000000       23314.0352      -1.18479323    
   4.91481400      0.647047520      -3.00000000       27562.6328      -1.20364201    
   4.91481400      0.647047520      -2.00000000       27562.6328      -1.20364201    
   5.00000000       0.00000000      -2.00000000       27562.6328      -1.20364201    
   5.00000000       0.00000000      -3.00000000       27562.6328      -1.20364201    
   4.91481400      0.647047520      -2.00000000       31946.2383      -1.21477568    
   4.91481400      0.647047520      -1.00000000       31946.2383      -1.21477568    
   5.00000000       0.00000000      -1.00000000       31946.2383      -1.21477568    
   5.00000000       0.00000000      -2.00000000       31946.2383      -1.21477568    
   4.91481400      0.647047520      -1.00000000       36391.3242      -1.21979952    
   4.91481400      0.647047520       0.00000000       36391.3242      -1.21979952    
   5.00000000       0.00000000       0.00000000       36391.3242      -1.21979952    
   5.00000000       0.00000000      -1.00000000       36391.3242      -1.21979952    
   4.33012676       2.50000000      -10.0000000       4615.71289     -0.781454206    
   4.33012676       2.50000000      -9.00000000       4615.71289     -0.781454206    
   4.57987785       1.89704800      -9.00000000       4615.71289     -0.781454206    
   4.57987785       1.89704800      -10.0000000       4615.71289     -0.781454206    
   4.33012676       2.50000000      -9.00000000       5842.67920     -0.810011804    
   4.33012676       2.50000000      -8.00000000       5842.67920     -0.810011804    
   4.57987785       1.89704800      -8.00000000       5842.67920     -0.810011804    
   4.57987785       1.89704800      -9.00000000       5842.67920     -0.810011804    
   4.33012676       2.50000000      -8.00000000       8002.19873     -0.941242933    
   4.33012676       2.50000000      -7.00000000       8002.19873     -0.941242933    
   4.57987785       1.89704800      -7.00000000       8002.19873     -0.941242933    
   4.57987785       1.89704800      -8.00000000       8002.19873     -0.941242933    
   4.33012676       2.50000000      -7.00000000       10745.5723      -1.04259348    
   4.33012676       2.50000000      -6.00000000       10745.5723      -1.04259348    
   4.57987785       1.89704800      -6.00000000       10745.5723      -1.04259348    
   4.57987785       1.89704800      -7.00000000       10745.5723      -1.04259348    
   4.33012676       2.50000000      -6.00000000       13900.8408      -1.11089396    
   4.33012676       2.50000000      -5.00000000       13900.8408      -1.11089396    
   4.57987785       1.89704800      -5.00000000       13900.8408      -1.11089396    
   4.57987785       1.89704800      -6.00000000       13900.8408      -1.11089396    
   4.33012676       2.50000000      -5.00000000       17351.5703      -1.15592742    
   4.33012676       2.50000000      -4.00000000       17351.5703      -1.15592742    
   4.57987785       1.89704800      -4.00000000       17351.5703      -1.15592742    
   4.57987785       1.89704800      -5.00000000       17351.5703      -1.15592742    
   4.33012676       2.50000000      -4.00000000       21019.9277      -1.18539965    
   4.33012676       2.50000000      -3.00000000       21019.9277      -1.18539965    
   4.57987785       1.89704800      -3.00000000       21019.9277      -1.18539965    
   4.57987785       1.89704800      -4.00000000       21019.9277      -1.18539965    
   4.33012676       2.50000000      -3.00000000       24852.8223      -1.20425272    
   4.33012676       2.50000000      -2.00000000       24852.8223      -1.20425272    
   4.57987785       1.89704800      -2.00000000       24852.8223      -1.20425272    
   4.57987785       1.89704800      -3.00000000       24852.8223      -1.20425272    
   4.33012676       2.50000000      -2.00000000       28807.2285      -1.21538830    
   4.33012676       2.50000000      -1.00000000       28807.2285      -1.21538830    
   4.57987785       1.89704800      -1.00000000       28807.2285      -1.21538830    
   4.57987785       1.89704800      -2.00000000       28807.2285      -1.21538830    
   4.33012676       2.50000000      -1.00000000       32816.1328      -1.22041416    
   4.33012676       2.50000000       0.00000000       32816.1328      -1.22041416    
   4.57987785       1.89704800       0.00000000       32816.1328      -1.22041416    
   4.57987785       1.89704800      -1.00000000       32816.1328      -1.22041416    
   4.57987785       1.89704800      -10.0000000       4878.15967     -0.784711838    
   4.57987785       1.89704800      -9.00000000       4878.15967     -0.784711838    
   4.82962894       1.29409504      -9.00000000       4878.15967     -0.784711838    
   4.82962894       1.29409504      -10.0000000       4878.15967     -0.784711838    
   4.57987785       1.89704800      -9.00000000       6163.04102     -0.811402977    
   4.57987785       1.89704800      -8.00000000       6163.04102     -0.811402977    
   4.82962894       1.29409504      -8.00000000       6163.04102     -0.811402977    
   4.82962894       1.29409504      -9.00000000       6163.04102     -0.811402977    
   4.57987785       1.89704800      -8.00000000       8428.13672     -0.941207767    
   4.57987785       1.89704800      -7.00000000       8428.13672     -0.941207767    
   4.82962894       1.29409504      -7.00000000       8428.13672     -0.941207767    
   4.82962894       1.29409504      -8.00000000       8428.13672     -0.941207767    
   4.57987785       1.89704800      -7.00000000       11306.3496      -1.04199147    
   4.57987785       1.89704800      -6.00000000       11306.3496      -1.04199147    
   4.82962894       1.29409504      -6.00000000       11306.3496      -1.04199147    
   4.82962894       1.29409504      -7.00000000       11306.3496      -1.04199147    
   4.57987785       1.89704800      -6.00000000       14617.4365      -1.11008418    
   4.57987785       1.89704800      -5.00000000       14617.4365      -1.11008418    
   4.82962894       1.29409504      -5.00000000       14617.4365      -1.11008418    
   4.82962894       1.29409504      -6.00000000       14617.4365      -1.11008418    
   4.57987785       1.89704800      -5.00000000       18239.4395      -1.15504837    
   4.57987785       1.89704800      -4.00000000       18239.4395      -1.15504837    
   4.82962894       1.29409504      -4.00000000       18239.4395      -1.15504837    
   4.82962894       1.29409504      -5.00000000       18239.4395      -1.15504837    
   4.57987785       1.89704800      -4.00000000       22090.3145      -1.18449509    
   4.57987785       1.89704800      -3.00000000       22090.3145      -1.18449509    
   4.82962894       1.29409504      -3.00000000       22090.3145      -1.18449509    
   4.82962894       1.29409504      -4.00000000       22090.3145      -1.18449509    
   4.57987785       1.89704800      -3.00000000       26114.6973      -1.20334184    
   4.57987785       1.89704800      -2.00000000       26114.6973      -1.20334184    
   4.82962894       1.29409504      -2.00000000       26114.6973      -1.20334184    
   4.82962894       1.29409504      -3.00000000       26114.6973      -1.20334184    
   4.57987785       1.89704800      -2.00000000       30267.0957      -1.21447372    
   4.57987785       1.89704800      -1.00000000       30267.0957      -1.21447372    
   4.82962894       1.29409504      -1.00000000       30267.0957      -1.21447372    
   4.82962894       1.29409504      -2.00000000       30267.0957      -1.21447372    
   4.57987785       1.89704800      -1.00000000       34478.2461      -1.21949673    
   4.57987785       1.89704800       0.00000000       34478.2461      -1.21949673    
   4.82962894       1.29409504       0.00000000       34478.2461      -1.21949673    
   4.82962894       1.29409504      -1.00000000       34478.2461      -1.21949673    
   3.53553391       3.53553391      -10.0000000       3867.55444     -0.779950559    
   3.53553391       3.53553391      -9.00000000       3867.55444     -0.779950559    
   3.93283010       3.01776695      -9.00000000       3867.55444     -0.779950559    
   3.93283010       3.01776695      -10.0000000       3867.55444     -0.779950559    
   3.53553391       3.53553391      -9.00000000       4899.96533     -0.809371233    
   3.53553391       3.53553391      -8.00000000       4899.96533     -0.809371233    
   3.93283010       3.01776695      -8.00000000       4899.96533     -0.809371233    
   3.93283010       3.01776695      -9.00000000       4899.96533     -0.809371233    
   3.53553391       3.53553391      -8.00000000       6715.74365     -0.941258311    
   3.53553391       3.53553391      -7.00000000       6715.74365     -0.941258311    
   3.93283010       3.01776695      -7.00000000       6715.74365     -0.941258311    
   3.93283010       3.01776695      -8.00000000       6715.74365     -0.941258311    
   3.53553391       3.53553391      -7.00000000       9022.18262      -1.04287004    
   3.53553391       3.53553391      -6.00000000       9022.18262      -1.04287004    
   3.93283010       3.01776695      -6.00000000       9022.18262      -1.04287004    
   3.93283010       3.01776695      -7.00000000       9022.18262      -1.04287004    
   3.53553391       3.53553391      -6.00000000       11674.6279      -1.11126554    
   3.53553391       3.53553391      -5.00000000       11674.6279      -1.11126554    
   3.93283010       3.01776695      -5.00000000       11674.6279      -1.11126554    
   3.93283010       3.01776695      -6.00000000       11674.6279      -1.11126554    
   3.53553391       3.53553391      -5.00000000       14575.1445      -1.15632987    
   3.53553391       3.53553391      -4.00000000       14575.1445      -1.15632987    
   3.93283010       3.01776695      -4.00000000       14575.1445      -1.15632987    
   3.93283010       3.01776695      -5.00000000       14575.1445      -1.15632987    
   3.53553391       3.53553391      -4.00000000       17658.4434      -1.18581402    
   3.53553391       3.53553391      -3.00000000       17658.4434      -1.18581402    
   3.93283010       3.01776695      -3.00000000       17658.4434      -1.18581402    
   3.93283010       3.01776695      -4.00000000       17658.4434      -1.18581402    
   3.53553391       3.53553391      -3.00000000       20879.7363      -1.20466912    
   3.53553391       3.53553391      -2.00000000       20879.7363      -1.20466912    
   3.93283010       3.01776695      -2.00000000       20879.7363      -1.20466912    
   3.93283010       3.01776695      -3.00000000       20879.7363      -1.20466912    
   3.53553391       3.53553391      -2.00000000       24202.9961      -1.21580684    
   3.53553391       3.53553391      -1.00000000       24202.9961      -1.21580684    
   3.93283010       3.01776695      -1.00000000       24202.9961      -1.21580684    
   3.93283010       3.01776695      -2.00000000       24202.9961      -1.21580684    
   3.53553391       3.53553391      -1.00000000       27571.5098      -1.22083378    
   3.53553391       3.53553391       0.00000000       27571.5098      -1.22083378    
   3.93283010       3.01776695       0.00000000       27571.5098      -1.22083378    
   3.93283010       3.01776695      -1.00000000       27571.5098      -1.22083378    
   3.93283010       3.01776695      -10.0000000       4285.04639     -0.785996616    
   3.93283010       3.01776695      -9.00000000       4285.04639     -0.785996616    
   4.33012676       2.50000000      -9.00000000       4285.04639     -0.785996616    
   4.33012676       2.50000000      -10.0000000       4285.04639     -0.785996616    
   3.93283010       3.01776695      -9.00000000       5409.58789     -0.811952353    
   3.93283010       3.01776695      -8.00000000       5409.58789     -0.811952353    
   4.33012676       2.50000000      -8.00000000       5409.58789     -0.811952353    
   4.33012676       2.50000000      -9.00000000       5409.58789     -0.811952353    
   3.93283010       3.01776695      -8.00000000       7393.31445     -0.941193104    
   3.93283010       3.01776695      -7.00000000       7393.31445     -0.941193104    
   4.33012676       2.50000000      -7.00000000       7393.31445     -0.941193104    
   4.33012676       2.50000000      -8.00000000       7393.31445     -0.941193104    
   3.93283010       3.01776695      -7.00000000       9914.24023      -1.04175293    
   3.93283010       3.01776695      -6.00000000       9914.24023      -1.04175293    
   4.33012676       2.50000000      -6.00000000       9914.24023      -1.04175293    
   4.33012676       2.50000000      -7.00000000       9914.24023      -1.04175293    
   3.93283010       3.01776695      -6.00000000       12814.5762      -1.10976291    
   3.93283010       3.01776695      -5.00000000       12814.5762      -1.10976291    
   4.33012676       2.50000000      -5.00000000       12814.5762      -1.10976291    
   4.33012676       2.50000000      -6.00000000       12814.5762      -1.10976291    
   3.93283010       3.01776695      -5.00000000       15987.5654      -1.15469897    
   3.93283010       3.01776695      -4.00000000       15987.5654      -1.15469897    
   4.33012676       2.50000000      -4.00000000       15987.5654      -1.15469897    
   4.33012676       2.50000000      -5.00000000       15987.5654      -1.15469897    
   3.93283010       3.01776695      -4.00000000       19361.1777      -1.18413579    
   3.93283010       3.01776695      -3.00000000       19361.1777      -1.18413579    
   4.33012676       2.50000000      -3.00000000       19361.1777      -1.18413579    
   4.33012676       2.50000000      -4.00000000       19361.1777      -1.18413579    
   3.93283010       3.01776695      -3.00000000       22887.0859      -1.20298016    
   3.93283010       3.01776695      -2.00000000       22887.0859      -1.20298016    
   4.33012676       2.50000000      -2.00000000       22887.0859      -1.20298016    
   4.33012676       2.50000000      -3.00000000       22887.0859      -1.20298016    
   3.93283010       3.01776695      -2.00000000       26525.2930      -1.21411014    
   3.93283010       3.01776695      -1.00000000       26525.2930      -1.21411014    
   4.33012676       2.50000000      -1.00000000       26525.2930      -1.21411014    
   4.33012676       2.50000000      -2.00000000       26525.2930      -1.21411014    
   3.93283010       3.01776695      -1.00000000       30215.5117      -1.21913207    
   3.93283010       3.01776695       0.00000000       30215.5117      -1.21913207    
   4.33012676       2.50000000       0.00000000       30215.5117      -1.21913207    
   4.33012676       2.50000000      -1.00000000       30215.5117      -1.21913207    
   2.50000000       4.33012676      -10.0000000       2855.84229     -0.777518690    
   2.50000000       4.33012676      -9.00000000       2855.84229     -0.777518690    
   3.01776695       3.93283010      -9.00000000       2855.84229     -0.777518690    
   3.01776695       3.93283010      -10.0000000       2855.84229     -0.777518690    
   2.50000000       4.33012676      -9.00000000       3623.33203     -0.808338344    
   2.50000000       4.33012676      -8.00000000       3623.33203     -0.808338344    
   3.01776695       3.93283010      -8.00000000       3623.33203     -0.808338344    
   3.01776695       3.93283010      -9.00000000       3623.33203     -0.808338344    
   2.50000000       4.33012676      -8.00000000       4971.61670     -0.941283822    
   2.50000000       4.33012676      -7.00000000       4971.61670     -0.941283822    
   3.01776695       3.93283010      -7.00000000       4971.61670     -0.941283822    
   3.01776695       3.93283010      -8.00000000       4971.61670     -0.941283822    
   2.50000000       4.33012676      -7.00000000       6683.94092      -1.04331279    
   2.50000000       4.33012676      -6.00000000       6683.94092      -1.04331279    
   3.01776695       3.93283010      -6.00000000       6683.94092      -1.04331279    
   3.01776695       3.93283010      -7.00000000       6683.94092      -1.04331279    
   2.50000000       4.33012676      -6.00000000       8652.81348      -1.11186194    
   2.50000000       4.33012676      -5.00000000       8652.81348      -1.11186194    
   3.01776695       3.93283010      -5.00000000       8652.81348      -1.11186194    
   3.01776695       3.93283010      -6.00000000       8652.81348      -1.11186194    
   2.50000000       4.33012676      -5.00000000       10805.4541      -1.15697646    
   2.50000000       4.33012676      -4.00000000       10805.4541      -1.15697646    
   3.01776695       3.93283010      -4.00000000       10805.4541      -1.15697646    
   3.01776695       3.93283010      -5.00000000       10805.4541      -1.15697646    
   2.50000000       4.33012676      -4.00000000       13093.5635      -1.18647814    
   2.50000000       4.33012676      -3.00000000       13093.5635      -1.18647814    
   3.01776695       3.93283010      -3.00000000       13093.5635      -1.18647814    
   3.01776695       3.93283010      -4.00000000       13093.5635      -1.18647814    
   2.50000000       4.33012676      -3.00000000       15483.7324      -1.20533884    
   2.50000000       4.33012676      -2.00000000       15483.7324      -1.20533884    
   3.01776695       3.93283010      -2.00000000       15483.7324      -1.20533884    
   3.01776695       3.93283010      -3.00000000       15483.7324      -1.20533884    
   2.50000000       4.33012676      -2.00000000       17949.3555      -1.21647906    
   2.50000000       4.33012676      -1.00000000       17949.3555      -1.21647906    
   3.01776695       3.93283010      -1.00000000       17949.3555      -1.21647906    
   3.01776695       3.93283010      -2.00000000       17949.3555      -1.21647906    
   2.50000000       4.33012676      -1.00000000       20447.9102      -1.22150755    
   2.50000000       4.33012676       0.00000000       20447.9102      -1.22150755    
   3.01776695       3.93283010       0.00000000       20447.9102      -1.22150755    
   3.01776695       3.93283010      -1.00000000       20447.9102      -1.22150755    
   3.01776695       3.93283010      -10.0000000       3399.92310     -0.787838697    
   3.01776695       3.93283010      -9.00000000       3399.92310     -0.787838697    
   3.53553391       3.53553391      -9.00000000       3399.92310     -0.787838697    
   3.53553391       3.53553391      -10.0000000       3399.92310     -0.787838697    
   3.01776695       3.93283010      -9.00000000       4287.47949     -0.812742949    
   3.01776695       3.93283010      -8.00000000       4287.47949     -0.812742949    
   3.53553391       3.53553391      -8.00000000       4287.47949     -0.812742949    
   3.53553391       3.53553391      -9.00000000       4287.47949     -0.812742949    
   3.01776695       3.93283010      -8.00000000       5854.64062     -0.941174090    
   3.01776695       3.93283010      -7.00000000       5854.64062     -0.941174090    
   3.53553391       3.53553391      -7.00000000       5854.64062     -0.941174090    
   3.53553391       3.53553391      -8.00000000       5854.64062     -0.941174090    
   3.01776695       3.93283010      -7.00000000       7846.49023      -1.04140913    
   3.01776695       3.93283010      -6.00000000       7846.49023      -1.04140913    
   3.53553391       3.53553391      -6.00000000       7846.49023      -1.04140913    
   3.53553391       3.53553391      -7.00000000       7846.49023      -1.04140913    
   3.01776695       3.93283010      -6.00000000       10138.4287      -1.10929918    
   3.01776695       3.93283010      -5.00000000       10138.4287      -1.10929918    
   3.53553391       3.53553391      -5.00000000       10138.4287      -1.10929918    
   3.53553391       3.53553391      -6.00000000       10138.4287      -1.10929918    
   3.01776695       3.93283010      -5.00000000       12646.1445      -1.15419543    
   3.01776695       3.93283010      -4.00000000       12646.1445      -1.15419543    
   3.53553391       3.53553391      -4.00000000       12646.1445      -1.15419543    
   3.53553391       3.53553391      -5.00000000       12646.1445      -1.15419543    
   3.01776695       3.93283010      -4.00000000       15312.6055      -1.18361712    
   3.01776695       3.93283010      -3.00000000       15312.6055      -1.18361712    
   3.53553391       3.53553391      -3.00000000       15312.6055      -1.18361712    
   3.53553391       3.53553391      -4.00000000       15312.6055      -1.18361712    
   3.01776695       3.93283010      -3.00000000       18099.7578      -1.20245814    
   3.01776695       3.93283010      -2.00000000       18099.7578      -1.20245814    
   3.53553391       3.53553391      -2.00000000       18099.7578      -1.20245814    
   3.53553391       3.53553391      -3.00000000       18099.7578      -1.20245814    
   3.01776695       3.93283010      -2.00000000       20975.8516      -1.21358550    
   3.01776695       3.93283010      -1.00000000       20975.8516      -1.21358550    
   3.53553391       3.53553391      -1.00000000       20975.8516      -1.21358550    
   3.53553391       3.53553391      -2.00000000       20975.8516      -1.21358550    
   3.01776695       3.93283010      -1.00000000       23893.6621      -1.21860635    
   3.01776695       3.93283010       0.00000000       23893.6621      -1.21860635    
   3.53553391       3.53553391       0.00000000       23893.6621      -1.21860635    
   3.53553391       3.53553391      -1.00000000       23893.6621      -1.21860635    
   1.29409504       4.82962894      -10.0000000       1649.54517     -0.771821558    
   1.29409504       4.82962894      -9.00000000       1649.54517     -0.771821558    
   1.89704800       4.57987785      -9.00000000       1649.54517     -0.771821558    
   1.89704800       4.57987785      -10.0000000       1649.54517     -0.771821558    
   1.29409504       4.82962894      -9.00000000       2099.77808     -0.805929780    
   1.29409504       4.82962894      -8.00000000       2099.77808     -0.805929780    
   1.89704800       4.57987785      -8.00000000       2099.77808     -0.805929780    
   1.89704800       4.57987785      -9.00000000       2099.77808     -0.805929780    
   1.29409504       4.82962894      -8.00000000       2888.68042     -0.941344976    
   1.29409504       4.82962894      -7.00000000       2888.68042     -0.941344976    
   1.89704800       4.57987785      -7.00000000       2888.68042     -0.941344976    
   1.89704800       4.57987785      -8.00000000       2888.68042     -0.941344976    
   1.29409504       4.82962894      -7.00000000       3890.19971      -1.04434335    
   1.29409504       4.82962894      -6.00000000       3890.19971      -1.04434335    
   1.89704800       4.57987785      -6.00000000       3890.19971      -1.04434335    
   1.89704800       4.57987785      -7.00000000       3890.19971      -1.04434335    
   1.29409504       4.82962894      -6.00000000       5041.33008      -1.11324358    
   1.29409504       4.82962894      -5.00000000       5041.33008      -1.11324358    
   1.89704800       4.57987785      -5.00000000       5041.33008      -1.11324358    
   1.89704800       4.57987785      -6.00000000       5041.33008      -1.11324358    
   1.29409504       4.82962894      -5.00000000       6299.40430      -1.15847182    
   1.29409504       4.82962894      -4.00000000       6299.40430      -1.15847182    
   1.89704800       4.57987785      -4.00000000       6299.40430      -1.15847182    
   1.89704800       4.57987785      -5.00000000       6299.40430      -1.15847182    
   1.29409504       4.82962894      -4.00000000       7636.39404      -1.18801689    
   1.29409504       4.82962894      -3.00000000       7636.39404      -1.18801689    
   1.89704800       4.57987785      -3.00000000       7636.39404      -1.18801689    