 VARIABLES="X" "Y" "Z" "abs(p) (Pa)" "angle(p) (rad)"
ZONE N=   1080,E =     600, F=FEPOINT, ET=QUADRILATERAL
   4.82962894       1.29409504      -10.0000000       2538.91431      -1.43079376    
   4.82962894       1.29409504      -9.00000000       2538.91431      -1.43079376    
   4.91481400      0.647047520      -9.00000000       2538.91431      -1.43079376    
   4.91481400      0.647047520      -10.0000000       2538.91431      -1.43079376    
   4.82962894       1.29409504      -9.00000000       3116.06494      -1.44048595    
   4.82962894       1.29409504      -8.00000000       3116.06494      -1.44048595    
   4.91481400      0.647047520      -8.00000000       3116.06494      -1.44048595    
   4.91481400      0.647047520      -9.00000000       3116.06494      -1.44048595    
   4.82962894       1.29409504      -8.00000000       4508.72754      -1.47239995    
   4.82962894       1.29409504      -7.00000000       4508.72754      -1.47239995    
   4.91481400      0.647047520      -7.00000000       4508.72754      -1.47239995    
   4.91481400      0.647047520      -8.00000000       4508.72754      -1.47239995    
   4.82962894       1.29409504      -7.00000000       6242.60547      -1.49437189    
   4.82962894       1.29409504      -6.00000000       6242.60547      -1.49437189    
   4.91481400      0.647047520      -6.00000000       6242.60547      -1.49437189    
   4.91481400      0.647047520      -7.00000000       6242.60547      -1.49437189    
   4.82962894       1.29409504      -6.00000000       8156.29297      -1.50843430    
   4.82962894       1.29409504      -5.00000000       8156.29297      -1.50843430    
   4.91481400      0.647047520      -5.00000000       8156.29297      -1.50843430    
   4.91481400      0.647047520      -6.00000000       8156.29297      -1.50843430    
   4.82962894       1.29409504      -5.00000000       10149.8994      -1.51765299    
   4.82962894       1.29409504      -4.00000000       10149.8994      -1.51765299    
   4.91481400      0.647047520      -4.00000000       10149.8994      -1.51765299    
   4.91481400      0.647047520      -5.00000000       10149.8994      -1.51765299    
   4.82962894       1.29409504      -4.00000000       12145.9072      -1.52387118    
   4.82962894       1.29409504      -3.00000000       12145.9072      -1.52387118    
   4.91481400      0.647047520      -3.00000000       12145.9072      -1.52387118    
   4.91481400      0.647047520      -4.00000000       12145.9072      -1.52387118    
   4.82962894       1.29409504      -3.00000000       14069.7842      -1.52811253    
   4.82962894       1.29409504      -2.00000000       14069.7842      -1.52811253    
   4.91481400      0.647047520      -2.00000000       14069.7842      -1.52811253    
   4.91481400      0.647047520      -3.00000000       14069.7842      -1.52811253    
   4.82962894       1.29409504      -2.00000000       15833.3203      -1.53091300    
   4.82962894       1.29409504      -1.00000000       15833.3203      -1.53091300    
   4.91481400      0.647047520      -1.00000000       15833.3203      -1.53091300    
   4.91481400      0.647047520      -2.00000000       15833.3203      -1.53091300    
   4.82962894       1.29409504      -1.00000000       17282.1465      -1.53244603    
   4.82962894       1.29409504       0.00000000       17282.1465      -1.53244603    
   4.91481400      0.647047520       0.00000000       17282.1465      -1.53244603    
   4.91481400      0.647047520      -1.00000000       17282.1465      -1.53244603    
   4.91481400      0.647047520      -10.0000000       2585.98999      -1.43105221    
   4.91481400      0.647047520      -9.00000000       2585.98999      -1.43105221    
   5.00000000       0.00000000      -9.00000000       2585.98999      -1.43105221    
   5.00000000       0.00000000      -10.0000000       2585.98999      -1.43105221    
   4.91481400      0.647047520      -9.00000000       3170.54004      -1.44059491    
   4.91481400      0.647047520      -8.00000000       3170.54004      -1.44059491    
   5.00000000       0.00000000      -8.00000000       3170.54004      -1.44059491    
   5.00000000       0.00000000      -9.00000000       3170.54004      -1.44059491    
   4.91481400      0.647047520      -8.00000000       4583.61719      -1.47239769    
   4.91481400      0.647047520      -7.00000000       4583.61719      -1.47239769    
   5.00000000       0.00000000      -7.00000000       4583.61719      -1.47239769    
   5.00000000       0.00000000      -8.00000000       4583.61719      -1.47239769    
   4.91481400      0.647047520      -7.00000000       6343.55664      -1.49433684    
   4.91481400      0.647047520      -6.00000000       6343.55664      -1.49433684    
   5.00000000       0.00000000      -6.00000000       6343.55664      -1.49433684    
   5.00000000       0.00000000      -7.00000000       6343.55664      -1.49433684    
   4.91481400      0.647047520      -6.00000000       8286.25391      -1.50839138    
   4.91481400      0.647047520      -5.00000000       8286.25391      -1.50839138    
   5.00000000       0.00000000      -5.00000000       8286.25391      -1.50839138    
   5.00000000       0.00000000      -6.00000000       8286.25391      -1.50839138    
   4.91481400      0.647047520      -5.00000000       10310.2051      -1.51760900    
   4.91481400      0.647047520      -4.00000000       10310.2051      -1.51760900    
   5.00000000       0.00000000      -4.00000000       10310.2051      -1.51760900    
   5.00000000       0.00000000      -5.00000000       10310.2051      -1.51760900    
   4.91481400      0.647047520      -4.00000000       12336.5527      -1.52382803    
   4.91481400      0.647047520      -3.00000000       12336.5527      -1.52382803    
   5.00000000       0.00000000      -3.00000000       12336.5527      -1.52382803    
   5.00000000       0.00000000      -4.00000000       12336.5527      -1.52382803    
   4.91481400      0.647047520      -3.00000000       14289.6191      -1.52807033    
   4.91481400      0.647047520      -2.00000000       14289.6191      -1.52807033    
   5.00000000       0.00000000      -2.00000000       14289.6191      -1.52807033    
   5.00000000       0.00000000      -3.00000000       14289.6191      -1.52807033    
   4.91481400      0.647047520      -2.00000000       16079.6543      -1.53087080    
   4.91481400      0.647047520      -1.00000000       16079.6543      -1.53087080    
   5.00000000       0.00000000      -1.00000000       16079.6543      -1.53087080    
   5.00000000       0.00000000      -2.00000000       16079.6543      -1.53087080    
   4.91481400      0.647047520      -1.00000000       17550.0039      -1.53240335    
   4.91481400      0.647047520       0.00000000       17550.0039      -1.53240335    
   5.00000000       0.00000000       0.00000000       17550.0039      -1.53240335    
   5.00000000       0.00000000      -1.00000000       17550.0039      -1.53240335    
   4.33012676       2.50000000      -10.0000000       2318.81689      -1.43050611    
   4.33012676       2.50000000      -9.00000000       2318.81689      -1.43050611    
   4.57987785       1.89704800      -9.00000000       2318.81689      -1.43050611    
   4.57987785       1.89704800      -10.0000000       2318.81689      -1.43050611    
   4.33012676       2.50000000      -9.00000000       2849.23730      -1.44036555    
   4.33012676       2.50000000      -8.00000000       2849.23730      -1.44036555    
   4.57987785       1.89704800      -8.00000000       2849.23730      -1.44036555    
   4.57987785       1.89704800      -9.00000000       2849.23730      -1.44036555    
   4.33012676       2.50000000      -8.00000000       4126.57275      -1.47240269    
   4.33012676       2.50000000      -7.00000000       4126.57275      -1.47240269    
   4.57987785       1.89704800      -7.00000000       4126.57275      -1.47240269    
   4.57987785       1.89704800      -8.00000000       4126.57275      -1.47240269    
   4.33012676       2.50000000      -7.00000000       5716.23584      -1.49441063    
   4.33012676       2.50000000      -6.00000000       5716.23584      -1.49441063    
   4.57987785       1.89704800      -6.00000000       5716.23584      -1.49441063    
   4.57987785       1.89704800      -7.00000000       5716.23584      -1.49441063    
   4.33012676       2.50000000      -6.00000000       7470.49414      -1.50848150    
   4.33012676       2.50000000      -5.00000000       7470.49414      -1.50848150    
   4.57987785       1.89704800      -5.00000000       7470.49414      -1.50848150    
   4.57987785       1.89704800      -6.00000000       7470.49414      -1.50848150    
   4.33012676       2.50000000      -5.00000000       9297.87598      -1.51770127    
   4.33012676       2.50000000      -4.00000000       9297.87598      -1.51770127    
   4.57987785       1.89704800      -4.00000000       9297.87598      -1.51770127    
   4.57987785       1.89704800      -5.00000000       9297.87598      -1.51770127    
   4.33012676       2.50000000      -4.00000000       11127.5342      -1.52391911    
   4.33012676       2.50000000      -3.00000000       11127.5342      -1.52391911    
   4.57987785       1.89704800      -3.00000000       11127.5342      -1.52391911    
   4.57987785       1.89704800      -4.00000000       11127.5342      -1.52391911    
   4.33012676       2.50000000      -3.00000000       12891.1299      -1.52815962    
   4.33012676       2.50000000      -2.00000000       12891.1299      -1.52815962    
   4.57987785       1.89704800      -2.00000000       12891.1299      -1.52815962    
   4.57987785       1.89704800      -3.00000000       12891.1299      -1.52815962    
   4.33012676       2.50000000      -2.00000000       14507.9570      -1.53095973    
   4.33012676       2.50000000      -1.00000000       14507.9570      -1.53095973    
   4.57987785       1.89704800      -1.00000000       14507.9570      -1.53095973    
   4.57987785       1.89704800      -2.00000000       14507.9570      -1.53095973    
   4.33012676       2.50000000      -1.00000000       15836.5244      -1.53249347    
   4.33012676       2.50000000       0.00000000       15836.5244      -1.53249347    
   4.57987785       1.89704800       0.00000000       15836.5244      -1.53249347    
   4.57987785       1.89704800      -1.00000000       15836.5244      -1.53249347    
   4.57987785       1.89704800      -10.0000000       2456.83594      -1.43131959    
   4.57987785       1.89704800      -9.00000000       2456.83594      -1.43131959    
   4.82962894       1.29409504      -9.00000000       2456.83594      -1.43131959    
   4.82962894       1.29409504      -10.0000000       2456.83594      -1.43131959    
   4.57987785       1.89704800      -9.00000000       3008.94580      -1.44070792    
   4.57987785       1.89704800      -8.00000000       3008.94580      -1.44070792    
   4.82962894       1.29409504      -8.00000000       3008.94580      -1.44070792    
   4.82962894       1.29409504      -9.00000000       3008.94580      -1.44070792    
   4.57987785       1.89704800      -8.00000000       4346.14209      -1.47239542    
   4.57987785       1.89704800      -7.00000000       4346.14209      -1.47239542    
   4.82962894       1.29409504      -7.00000000       4346.14209      -1.47239542    
   4.82962894       1.29409504      -8.00000000       4346.14209      -1.47239542    
   4.57987785       1.89704800      -7.00000000       6012.19531      -1.49430108    
   4.57987785       1.89704800      -6.00000000       6012.19531      -1.49430108    
   4.82962894       1.29409504      -6.00000000       6012.19531      -1.49430108    
   4.82962894       1.29409504      -7.00000000       6012.19531      -1.49430108    
   4.57987785       1.89704800      -6.00000000       7851.52295      -1.50834703    
   4.57987785       1.89704800      -5.00000000       7851.52295      -1.50834703    
   4.82962894       1.29409504      -5.00000000       7851.52295      -1.50834703    
   4.82962894       1.29409504      -6.00000000       7851.52295      -1.50834703    
   4.57987785       1.89704800      -5.00000000       9767.89941      -1.51756346    
   4.57987785       1.89704800      -4.00000000       9767.89941      -1.51756346    
   4.82962894       1.29409504      -4.00000000       9767.89941      -1.51756346    
   4.82962894       1.29409504      -5.00000000       9767.89941      -1.51756346    
   4.57987785       1.89704800      -4.00000000       11686.4834      -1.52378309    
   4.57987785       1.89704800      -3.00000000       11686.4834      -1.52378309    
   4.82962894       1.29409504      -3.00000000       11686.4834      -1.52378309    
   4.82962894       1.29409504      -4.00000000       11686.4834      -1.52378309    
   4.57987785       1.89704800      -3.00000000       13535.6406      -1.52802646    
   4.57987785       1.89704800      -2.00000000       13535.6406      -1.52802646    
   4.82962894       1.29409504      -2.00000000       13535.6406      -1.52802646    
   4.82962894       1.29409504      -3.00000000       13535.6406      -1.52802646    
   4.57987785       1.89704800      -2.00000000       15230.2109      -1.53082705    
   4.57987785       1.89704800      -1.00000000       15230.2109      -1.53082705    
   4.82962894       1.29409504      -1.00000000       15230.2109      -1.53082705    
   4.82962894       1.29409504      -2.00000000       15230.2109      -1.53082705    
   4.57987785       1.89704800      -1.00000000       16621.8809      -1.53235853    
   4.57987785       1.89704800       0.00000000       16621.8809      -1.53235853    
   4.82962894       1.29409504       0.00000000       16621.8809      -1.53235853    
   4.82962894       1.29409504      -1.00000000       16621.8809      -1.53235853    
   3.53553391       3.53553391      -10.0000000       1940.69409      -1.43012929    
   3.53553391       3.53553391      -9.00000000       1940.69409      -1.43012929    
   3.93283010       3.01776695      -9.00000000       1940.69409      -1.43012929    
   3.93283010       3.01776695      -10.0000000       1940.69409      -1.43012929    
   3.53553391       3.53553391      -9.00000000       2388.23682      -1.44020665    
   3.53553391       3.53553391      -8.00000000       2388.23682      -1.44020665    
   3.93283010       3.01776695      -8.00000000       2388.23682      -1.44020665    
   3.93283010       3.01776695      -9.00000000       2388.23682      -1.44020665    
   3.53553391       3.53553391      -8.00000000       3463.20386      -1.47240579    
   3.53553391       3.53553391      -7.00000000       3463.20386      -1.47240579    
   3.93283010       3.01776695      -7.00000000       3463.20386      -1.47240579    
   3.93283010       3.01776695      -8.00000000       3463.20386      -1.47240579    
   3.53553391       3.53553391      -7.00000000       4800.31299      -1.49446070    
   3.53553391       3.53553391      -6.00000000       4800.31299      -1.49446070    
   3.93283010       3.01776695      -6.00000000       4800.31299      -1.49446070    
   3.93283010       3.01776695      -7.00000000       4800.31299      -1.49446070    
   3.53553391       3.53553391      -6.00000000       6275.58984      -1.50854325    
   3.53553391       3.53553391      -5.00000000       6275.58984      -1.50854325    
   3.93283010       3.01776695      -5.00000000       6275.58984      -1.50854325    
   3.93283010       3.01776695      -6.00000000       6275.58984      -1.50854325    
   3.53553391       3.53553391      -5.00000000       7812.23877      -1.51776421    
   3.53553391       3.53553391      -4.00000000       7812.23877      -1.51776421    
   3.93283010       3.01776695      -4.00000000       7812.23877      -1.51776421    
   3.93283010       3.01776695      -5.00000000       7812.23877      -1.51776421    
   3.53553391       3.53553391      -4.00000000       9350.84766      -1.52398121    
   3.53553391       3.53553391      -3.00000000       9350.84766      -1.52398121    
   3.93283010       3.01776695      -3.00000000       9350.84766      -1.52398121    
   3.93283010       3.01776695      -4.00000000       9350.84766      -1.52398121    
   3.53553391       3.53553391      -3.00000000       10833.9590      -1.52822030    
   3.53553391       3.53553391      -2.00000000       10833.9590      -1.52822030    
   3.93283010       3.01776695      -2.00000000       10833.9590      -1.52822030    
   3.93283010       3.01776695      -3.00000000       10833.9590      -1.52822030    
   3.53553391       3.53553391      -2.00000000       12193.9092      -1.53102040    
   3.53553391       3.53553391      -1.00000000       12193.9092      -1.53102040    
   3.93283010       3.01776695      -1.00000000       12193.9092      -1.53102040    
   3.93283010       3.01776695      -2.00000000       12193.9092      -1.53102040    
   3.53553391       3.53553391      -1.00000000       13311.6768      -1.53255534    
   3.53553391       3.53553391       0.00000000       13311.6768      -1.53255534    
   3.93283010       3.01776695       0.00000000       13311.6768      -1.53255534    
   3.93283010       3.01776695      -1.00000000       13311.6768      -1.53255534    
   3.93283010       3.01776695      -10.0000000       2160.25073      -1.43163908    
   3.93283010       3.01776695      -9.00000000       2160.25073      -1.43163908    
   4.33012676       2.50000000      -9.00000000       2160.25073      -1.43163908    
   4.33012676       2.50000000      -10.0000000       2160.25073      -1.43163908    
   3.93283010       3.01776695      -9.00000000       2642.29834      -1.44084346    
   3.93283010       3.01776695      -8.00000000       2642.29834      -1.44084346    
   4.33012676       2.50000000      -8.00000000       2642.29834      -1.44084346    
   4.33012676       2.50000000      -9.00000000       2642.29834      -1.44084346    
   3.93283010       3.01776695      -8.00000000       3812.48120      -1.47239220    
   3.93283010       3.01776695      -7.00000000       3812.48120      -1.47239220    
   4.33012676       2.50000000      -7.00000000       3812.48120      -1.47239220    
   4.33012676       2.50000000      -8.00000000       3812.48120      -1.47239220    
   3.93283010       3.01776695      -7.00000000       5271.12402      -1.49425793    
   3.93283010       3.01776695      -6.00000000       5271.12402      -1.49425793    
   4.33012676       2.50000000      -6.00000000       5271.12402      -1.49425793    
   4.33012676       2.50000000      -7.00000000       5271.12402      -1.49425793    
   3.93283010       3.01776695      -6.00000000       6881.72461      -1.50829339    
   3.93283010       3.01776695      -5.00000000       6881.72461      -1.50829339    
   4.33012676       2.50000000      -5.00000000       6881.72461      -1.50829339    
   4.33012676       2.50000000      -6.00000000       6881.72461      -1.50829339    
   3.93283010       3.01776695      -5.00000000       8559.91895      -1.51750851    
   3.93283010       3.01776695      -4.00000000       8559.91895      -1.51750851    
   4.33012676       2.50000000      -4.00000000       8559.91895      -1.51750851    
   4.33012676       2.50000000      -5.00000000       8559.91895      -1.51750851    
   3.93283010       3.01776695      -4.00000000       10240.0049      -1.52372885    
   3.93283010       3.01776695      -3.00000000       10240.0049      -1.52372885    
   4.33012676       2.50000000      -3.00000000       10240.0049      -1.52372885    
   4.33012676       2.50000000      -4.00000000       10240.0049      -1.52372885    
   3.93283010       3.01776695      -3.00000000       11859.2275      -1.52797353    
   3.93283010       3.01776695      -2.00000000       11859.2275      -1.52797353    
   4.33012676       2.50000000      -2.00000000       11859.2275      -1.52797353    
   4.33012676       2.50000000      -3.00000000       11859.2275      -1.52797353    
   3.93283010       3.01776695      -2.00000000       13342.8516      -1.53077447    
   3.93283010       3.01776695      -1.00000000       13342.8516      -1.53077447    
   4.33012676       2.50000000      -1.00000000       13342.8516      -1.53077447    
   4.33012676       2.50000000      -2.00000000       13342.8516      -1.53077447    
   3.93283010       3.01776695      -1.00000000       14560.9951      -1.53230488    
   3.93283010       3.01776695       0.00000000       14560.9951      -1.53230488    
   4.33012676       2.50000000       0.00000000       14560.9951      -1.53230488    
   4.33012676       2.50000000      -1.00000000       14560.9951      -1.53230488    
   2.50000000       4.33012676      -10.0000000       1430.31714      -1.42951787    
   2.50000000       4.33012676      -9.00000000       1430.31714      -1.42951787    
   3.01776695       3.93283010      -9.00000000       1430.31714      -1.42951787    
   3.01776695       3.93283010      -10.0000000       1430.31714      -1.42951787    
   2.50000000       4.33012676      -9.00000000       1764.48279      -1.43995178    
   2.50000000       4.33012676      -8.00000000       1764.48279      -1.43995178    
   3.01776695       3.93283010      -8.00000000       1764.48279      -1.43995178    
   3.01776695       3.93283010      -9.00000000       1764.48279      -1.43995178    
   2.50000000       4.33012676      -8.00000000       2563.82056      -1.47241163    
   2.50000000       4.33012676      -7.00000000       2563.82056      -1.47241163    
   3.01776695       3.93283010      -7.00000000       2563.82056      -1.47241163    
   3.01776695       3.93283010      -8.00000000       2563.82056      -1.47241163    
   2.50000000       4.33012676      -7.00000000       3557.25220      -1.49454105    
   2.50000000       4.33012676      -6.00000000       3557.25220      -1.49454105    
   3.01776695       3.93283010      -6.00000000       3557.25220      -1.49454105    
   3.01776695       3.93283010      -7.00000000       3557.25220      -1.49454105    
   2.50000000       4.33012676      -6.00000000       4653.01904      -1.50864244    
   2.50000000       4.33012676      -5.00000000       4653.01904      -1.50864244    
   3.01776695       3.93283010      -5.00000000       4653.01904      -1.50864244    
   3.01776695       3.93283010      -6.00000000       4653.01904      -1.50864244    
   2.50000000       4.33012676      -5.00000000       5794.19727      -1.51786518    
   2.50000000       4.33012676      -4.00000000       5794.19727      -1.51786518    
   3.01776695       3.93283010      -4.00000000       5794.19727      -1.51786518    
   3.01776695       3.93283010      -5.00000000       5794.19727      -1.51786518    
   2.50000000       4.33012676      -4.00000000       6936.90967      -1.52408099    
   2.50000000       4.33012676      -3.00000000       6936.90967      -1.52408099    
   3.01776695       3.93283010      -3.00000000       6936.90967      -1.52408099    
   3.01776695       3.93283010      -4.00000000       6936.90967      -1.52408099    
   2.50000000       4.33012676      -3.00000000       8038.47461      -1.52831781    
   2.50000000       4.33012676      -2.00000000       8038.47461      -1.52831781    
   3.01776695       3.93283010      -2.00000000       8038.47461      -1.52831781    
   3.01776695       3.93283010      -3.00000000       8038.47461      -1.52831781    
   2.50000000       4.33012676      -2.00000000       9048.85645      -1.53111744    
   2.50000000       4.33012676      -1.00000000       9048.85645      -1.53111744    
   3.01776695       3.93283010      -1.00000000       9048.85645      -1.53111744    
   3.01776695       3.93283010      -2.00000000       9048.85645      -1.53111744    
   2.50000000       4.33012676      -1.00000000       9879.64648      -1.53265405    
   2.50000000       4.33012676       0.00000000       9879.64648      -1.53265405    
   3.01776695       3.93283010       0.00000000       9879.64648      -1.53265405    
   3.01776695       3.93283010      -1.00000000       9879.64648      -1.53265405    
   3.01776695       3.93283010      -10.0000000       1716.44812      -1.43209577    
   3.01776695       3.93283010      -9.00000000       1716.44812      -1.43209577    
   3.53553391       3.53553391      -9.00000000       1716.44812      -1.43209577    
   3.53553391       3.53553391      -10.0000000       1716.44812      -1.43209577    
   3.01776695       3.93283010      -9.00000000       2095.58374      -1.44103730    
   3.01776695       3.93283010      -8.00000000       2095.58374      -1.44103730    
   3.53553391       3.53553391      -8.00000000       2095.58374      -1.44103730    
   3.53553391       3.53553391      -9.00000000       2095.58374      -1.44103730    
   3.01776695       3.93283010      -8.00000000       3019.01050      -1.47238839    
   3.01776695       3.93283010      -7.00000000       3019.01050      -1.47238839    
   3.53553391       3.53553391      -7.00000000       3019.01050      -1.47238839    
   3.53553391       3.53553391      -8.00000000       3019.01050      -1.47238839    
   3.01776695       3.93283010      -7.00000000       4170.82666      -1.49419534    
   3.01776695       3.93283010      -6.00000000       4170.82666      -1.49419534    
   3.53553391       3.53553391      -6.00000000       4170.82666      -1.49419534    
   3.53553391       3.53553391      -7.00000000       4170.82666      -1.49419534    
   3.01776695       3.93283010      -6.00000000       5442.94531      -1.50821614    
   3.01776695       3.93283010      -5.00000000       5442.94531      -1.50821614    
   3.53553391       3.53553391      -5.00000000       5442.94531      -1.50821614    
   3.53553391       3.53553391      -6.00000000       5442.94531      -1.50821614    
   3.01776695       3.93283010      -5.00000000       6768.59961      -1.51742971    
   3.01776695       3.93283010      -4.00000000       6768.59961      -1.51742971    
   3.53553391       3.53553391      -4.00000000       6768.59961      -1.51742971    
   3.53553391       3.53553391      -5.00000000       6768.59961      -1.51742971    
   3.01776695       3.93283010      -4.00000000       8095.67676      -1.52365112    
   3.01776695       3.93283010      -3.00000000       8095.67676      -1.52365112    
   3.53553391       3.53553391      -3.00000000       8095.67676      -1.52365112    
   3.53553391       3.53553391      -4.00000000       8095.67676      -1.52365112    
   3.01776695       3.93283010      -3.00000000       9374.62305      -1.52789676    
   3.01776695       3.93283010      -2.00000000       9374.62305      -1.52789676    
   3.53553391       3.53553391      -2.00000000       9374.62305      -1.52789676    
   3.53553391       3.53553391      -3.00000000       9374.62305      -1.52789676    
   3.01776695       3.93283010      -2.00000000       10546.1748      -1.53069818    
   3.01776695       3.93283010      -1.00000000       10546.1748      -1.53069818    
   3.53553391       3.53553391      -1.00000000       10546.1748      -1.53069818    
   3.53553391       3.53553391      -2.00000000       10546.1748      -1.53069818    
   3.01776695       3.93283010      -1.00000000       11507.7959      -1.53222704    
   3.01776695       3.93283010       0.00000000       11507.7959      -1.53222704    
   3.53553391       3.53553391       0.00000000       11507.7959      -1.53222704    
   3.53553391       3.53553391      -1.00000000       11507.7959      -1.53222704    
   1.29409504       4.82962894      -10.0000000       822.469360      -1.42807591    
   1.29409504       4.82962894      -9.00000000       822.469360      -1.42807591    
   1.89704800       4.57987785      -9.00000000       822.469360      -1.42807591    
   1.89704800       4.57987785      -10.0000000       822.469360      -1.42807591    
   1.29409504       4.82962894      -9.00000000       1020.48492      -1.43935537    
   1.29409504       4.82962894      -8.00000000       1020.48492      -1.43935537    
   1.89704800       4.57987785      -8.00000000       1020.48492      -1.43935537    
   1.89704800       4.57987785      -9.00000000       1020.48492      -1.43935537    
   1.29409504       4.82962894      -8.00000000       1489.71655      -1.47242355    
   1.29409504       4.82962894      -7.00000000       1489.71655      -1.47242355    
   1.89704800       4.57987785      -7.00000000       1489.71655      -1.47242355    
   1.89704800       4.57987785      -8.00000000       1489.71655      -1.47242355    
   1.29409504       4.82962894      -7.00000000       2071.77856      -1.49472702    
   1.29409504       4.82962894      -6.00000000       2071.77856      -1.49472702    
   1.89704800       4.57987785      -6.00000000       2071.77856      -1.49472702    
   1.89704800       4.57987785      -7.00000000       2071.77856      -1.49472702    
   1.29409504       4.82962894      -6.00000000       2713.35034      -1.50887156    
   1.29409504       4.82962894      -5.00000000       2713.35034      -1.50887156    
   1.89704800       4.57987785      -5.00000000       2713.35034      -1.50887156    
   1.89704800       4.57987785      -6.00000000       2713.35034      -1.50887156    
   1.29409504       4.82962894      -5.00000000       3381.29224      -1.51809919    
   1.29409504       4.82962894      -4.00000000       3381.29224      -1.51809919    
   1.89704800       4.57987785      -4.00000000       3381.29224      -1.51809919    
   1.89704800       4.57987785      -5.00000000       3381.29224      -1.51809919    
   1.29409504       4.82962894      -4.00000000       4050.22632      -1.52431035    
   1.29409504       4.82962894      -3.00000000       4050.22632      -1.52431035    
   1.89704800       4.57987785      -3.00000000       4050.22632      -1.52431035    