 VARIABLES="X" "Y" "Z" "abs(p) (Pa)" "angle(p) (rad)"
ZONE N=   1080,E =     600, F=FEPOINT, ET=QUADRILATERAL
   4.82962894       1.29409504      -10.0000000       307.659668      -1.53819144    
   4.82962894       1.29409504      -9.00000000       307.659668      -1.53819144    
   4.91481400      0.647047520      -9.00000000       307.659668      -1.53819144    
   4.91481400      0.647047520      -10.0000000       307.659668      -1.53819144    
   4.82962894       1.29409504      -9.00000000       387.378632      -1.54154146    
   4.82962894       1.29409504      -8.00000000       387.378632      -1.54154146    
   4.91481400      0.647047520      -8.00000000       387.378632      -1.54154146    
   4.91481400      0.647047520      -9.00000000       387.378632      -1.54154146    
   4.82962894       1.29409504      -8.00000000       434.533600      -1.54254675    
   4.82962894       1.29409504      -7.00000000       434.533600      -1.54254675    
   4.91481400      0.647047520      -7.00000000       434.533600      -1.54254675    
   4.91481400      0.647047520      -8.00000000       434.533600      -1.54254675    
   4.82962894       1.29409504      -7.00000000       468.083649      -1.54284990    
   4.82962894       1.29409504      -6.00000000       468.083649      -1.54284990    
   4.91481400      0.647047520      -6.00000000       468.083649      -1.54284990    
   4.91481400      0.647047520      -7.00000000       468.083649      -1.54284990    
   4.82962894       1.29409504      -6.00000000       493.977844      -1.54282653    
   4.82962894       1.29409504      -5.00000000       493.977844      -1.54282653    
   4.91481400      0.647047520      -5.00000000       493.977844      -1.54282653    
   4.91481400      0.647047520      -6.00000000       493.977844      -1.54282653    
   4.82962894       1.29409504      -5.00000000       515.242920      -1.54263055    
   4.82962894       1.29409504      -4.00000000       515.242920      -1.54263055    
   4.91481400      0.647047520      -4.00000000       515.242920      -1.54263055    
   4.91481400      0.647047520      -5.00000000       515.242920      -1.54263055    
   4.82962894       1.29409504      -4.00000000       533.708618      -1.54234004    
   4.82962894       1.29409504      -3.00000000       533.708618      -1.54234004    
   4.91481400      0.647047520      -3.00000000       533.708618      -1.54234004    
   4.91481400      0.647047520      -4.00000000       533.708618      -1.54234004    
   4.82962894       1.29409504      -3.00000000       550.543579      -1.54201126    
   4.82962894       1.29409504      -2.00000000       550.543579      -1.54201126    
   4.91481400      0.647047520      -2.00000000       550.543579      -1.54201126    
   4.91481400      0.647047520      -3.00000000       550.543579      -1.54201126    
   4.82962894       1.29409504      -2.00000000       567.038879      -1.54169953    
   4.82962894       1.29409504      -1.00000000       567.038879      -1.54169953    
   4.91481400      0.647047520      -1.00000000       567.038879      -1.54169953    
   4.91481400      0.647047520      -2.00000000       567.038879      -1.54169953    
   4.82962894       1.29409504      -1.00000000       584.697449      -1.54147089    
   4.82962894       1.29409504       0.00000000       584.697449      -1.54147089    
   4.91481400      0.647047520       0.00000000       584.697449      -1.54147089    
   4.91481400      0.647047520      -1.00000000       584.697449      -1.54147089    
   4.91481400      0.647047520      -10.0000000       121.169662      -1.54149389    
   4.91481400      0.647047520      -9.00000000       121.169662      -1.54149389    
   5.00000000       0.00000000      -9.00000000       121.169662      -1.54149389    
   5.00000000       0.00000000      -10.0000000       121.169662      -1.54149389    
   4.91481400      0.647047520      -9.00000000       150.271774      -1.54401565    
   4.91481400      0.647047520      -8.00000000       150.271774      -1.54401565    
   5.00000000       0.00000000      -8.00000000       150.271774      -1.54401565    
   5.00000000       0.00000000      -9.00000000       150.271774      -1.54401565    
   4.91481400      0.647047520      -8.00000000       167.081818      -1.54470587    
   4.91481400      0.647047520      -7.00000000       167.081818      -1.54470587    
   5.00000000       0.00000000      -7.00000000       167.081818      -1.54470587    
   5.00000000       0.00000000      -8.00000000       167.081818      -1.54470587    
   4.91481400      0.647047520      -7.00000000       179.046417      -1.54485404    
   4.91481400      0.647047520      -6.00000000       179.046417      -1.54485404    
   5.00000000       0.00000000      -6.00000000       179.046417      -1.54485404    
   5.00000000       0.00000000      -7.00000000       179.046417      -1.54485404    
   4.91481400      0.647047520      -6.00000000       188.254593      -1.54472423    
   4.91481400      0.647047520      -5.00000000       188.254593      -1.54472423    
   5.00000000       0.00000000      -5.00000000       188.254593      -1.54472423    
   5.00000000       0.00000000      -6.00000000       188.254593      -1.54472423    
   4.91481400      0.647047520      -5.00000000       195.827652      -1.54447246    
   4.91481400      0.647047520      -4.00000000       195.827652      -1.54447246    
   5.00000000       0.00000000      -4.00000000       195.827652      -1.54447246    
   5.00000000       0.00000000      -5.00000000       195.827652      -1.54447246    
   4.91481400      0.647047520      -4.00000000       202.406418      -1.54414093    
   4.91481400      0.647047520      -3.00000000       202.406418      -1.54414093    
   5.00000000       0.00000000      -3.00000000       202.406418      -1.54414093    
   5.00000000       0.00000000      -4.00000000       202.406418      -1.54414093    
   4.91481400      0.647047520      -3.00000000       208.389008      -1.54378152    
   4.91481400      0.647047520      -2.00000000       208.389008      -1.54378152    
   5.00000000       0.00000000      -2.00000000       208.389008      -1.54378152    
   5.00000000       0.00000000      -3.00000000       208.389008      -1.54378152    
   4.91481400      0.647047520      -2.00000000       214.254639      -1.54343927    
   4.91481400      0.647047520      -1.00000000       214.254639      -1.54343927    
   5.00000000       0.00000000      -1.00000000       214.254639      -1.54343927    
   5.00000000       0.00000000      -2.00000000       214.254639      -1.54343927    
   4.91481400      0.647047520      -1.00000000       220.403214      -1.54317176    
   4.91481400      0.647047520       0.00000000       220.403214      -1.54317176    
   5.00000000       0.00000000       0.00000000       220.403214      -1.54317176    
   5.00000000       0.00000000      -1.00000000       220.403214      -1.54317176    
   4.33012676       2.50000000      -10.0000000       715.523621      -1.53874540    
   4.33012676       2.50000000      -9.00000000       715.523621      -1.53874540    
   4.57987785       1.89704800      -9.00000000       715.523621      -1.53874540    
   4.57987785       1.89704800      -10.0000000       715.523621      -1.53874540    
   4.33012676       2.50000000      -9.00000000       898.628357      -1.54195607    
   4.33012676       2.50000000      -8.00000000       898.628357      -1.54195607    
   4.57987785       1.89704800      -8.00000000       898.628357      -1.54195607    
   4.57987785       1.89704800      -9.00000000       898.628357      -1.54195607    
   4.33012676       2.50000000      -8.00000000       1006.53784      -1.54290652    
   4.33012676       2.50000000      -7.00000000       1006.53784      -1.54290652    
   4.57987785       1.89704800      -7.00000000       1006.53784      -1.54290652    
   4.57987785       1.89704800      -8.00000000       1006.53784      -1.54290652    
   4.33012676       2.50000000      -7.00000000       1083.31177      -1.54318190    
   4.33012676       2.50000000      -6.00000000       1083.31177      -1.54318190    
   4.57987785       1.89704800      -6.00000000       1083.31177      -1.54318190    
   4.57987785       1.89704800      -7.00000000       1083.31177      -1.54318190    
   4.33012676       2.50000000      -6.00000000       1142.54480      -1.54314005    
   4.33012676       2.50000000      -5.00000000       1142.54480      -1.54314005    
   4.57987785       1.89704800      -5.00000000       1142.54480      -1.54314005    
   4.57987785       1.89704800      -6.00000000       1142.54480      -1.54314005    
   4.33012676       2.50000000      -5.00000000       1191.20557      -1.54293311    
   4.33012676       2.50000000      -4.00000000       1191.20557      -1.54293311    
   4.57987785       1.89704800      -4.00000000       1191.20557      -1.54293311    
   4.57987785       1.89704800      -5.00000000       1191.20557      -1.54293311    
   4.33012676       2.50000000      -4.00000000       1233.45435      -1.54263699    
   4.33012676       2.50000000      -3.00000000       1233.45435      -1.54263699    
   4.57987785       1.89704800      -3.00000000       1233.45435      -1.54263699    
   4.57987785       1.89704800      -4.00000000       1233.45435      -1.54263699    
   4.33012676       2.50000000      -3.00000000       1271.95532      -1.54230213    
   4.33012676       2.50000000      -2.00000000       1271.95532      -1.54230213    
   4.57987785       1.89704800      -2.00000000       1271.95532      -1.54230213    
   4.57987785       1.89704800      -3.00000000       1271.95532      -1.54230213    
   4.33012676       2.50000000      -2.00000000       1309.68750      -1.54198539    
   4.33012676       2.50000000      -1.00000000       1309.68750      -1.54198539    
   4.57987785       1.89704800      -1.00000000       1309.68750      -1.54198539    
   4.57987785       1.89704800      -2.00000000       1309.68750      -1.54198539    
   4.33012676       2.50000000      -1.00000000       1349.95728      -1.54174864    
   4.33012676       2.50000000       0.00000000       1349.95728      -1.54174864    
   4.57987785       1.89704800       0.00000000       1349.95728      -1.54174864    
   4.57987785       1.89704800      -1.00000000       1349.95728      -1.54174864    
   4.57987785       1.89704800      -10.0000000       541.739868      -1.53960848    
   4.57987785       1.89704800      -9.00000000       541.739868      -1.53960848    
   4.82962894       1.29409504      -9.00000000       541.739868      -1.53960848    
   4.82962894       1.29409504      -10.0000000       541.739868      -1.53960848    
   4.57987785       1.89704800      -9.00000000       677.679382      -1.54260302    
   4.57987785       1.89704800      -8.00000000       677.679382      -1.54260302    
   4.82962894       1.29409504      -8.00000000       677.679382      -1.54260302    
   4.82962894       1.29409504      -9.00000000       677.679382      -1.54260302    
   4.57987785       1.89704800      -8.00000000       757.313965      -1.54346931    
   4.57987785       1.89704800      -7.00000000       757.313965      -1.54346931    
   4.82962894       1.29409504      -7.00000000       757.313965      -1.54346931    
   4.82962894       1.29409504      -8.00000000       757.313965      -1.54346931    
   4.57987785       1.89704800      -7.00000000       813.971069      -1.54369903    
   4.57987785       1.89704800      -6.00000000       813.971069      -1.54369903    
   4.82962894       1.29409504      -6.00000000       813.971069      -1.54369903    
   4.82962894       1.29409504      -7.00000000       813.971069      -1.54369903    
   4.57987785       1.89704800      -6.00000000       857.655029      -1.54363346    
   4.57987785       1.89704800      -5.00000000       857.655029      -1.54363346    
   4.82962894       1.29409504      -5.00000000       857.655029      -1.54363346    
   4.82962894       1.29409504      -6.00000000       857.655029      -1.54363346    
   4.57987785       1.89704800      -5.00000000       893.556580      -1.54340780    
   4.57987785       1.89704800      -4.00000000       893.556580      -1.54340780    
   4.82962894       1.29409504      -4.00000000       893.556580      -1.54340780    
   4.82962894       1.29409504      -5.00000000       893.556580      -1.54340780    
   4.57987785       1.89704800      -4.00000000       924.731689      -1.54310179    
   4.57987785       1.89704800      -3.00000000       924.731689      -1.54310179    
   4.82962894       1.29409504      -3.00000000       924.731689      -1.54310179    
   4.82962894       1.29409504      -4.00000000       924.731689      -1.54310179    
   4.57987785       1.89704800      -3.00000000       953.119324      -1.54276192    
   4.57987785       1.89704800      -2.00000000       953.119324      -1.54276192    
   4.82962894       1.29409504      -2.00000000       953.119324      -1.54276192    
   4.82962894       1.29409504      -3.00000000       953.119324      -1.54276192    
   4.57987785       1.89704800      -2.00000000       980.944580      -1.54243243    
   4.57987785       1.89704800      -1.00000000       980.944580      -1.54243243    
   4.82962894       1.29409504      -1.00000000       980.944580      -1.54243243    
   4.82962894       1.29409504      -2.00000000       980.944580      -1.54243243    
   4.57987785       1.89704800      -1.00000000       1010.48859      -1.54218590    
   4.57987785       1.89704800       0.00000000       1010.48859      -1.54218590    
   4.82962894       1.29409504       0.00000000       1010.48859      -1.54218590    
   4.82962894       1.29409504      -1.00000000       1010.48859      -1.54218590    
   3.53553391       3.53553391      -10.0000000       1074.62280      -1.53890586    
   3.53553391       3.53553391      -9.00000000       1074.62280      -1.53890586    
   3.93283010       3.01776695      -9.00000000       1074.62280      -1.53890586    
   3.93283010       3.01776695      -10.0000000       1074.62280      -1.53890586    
   3.53553391       3.53553391      -9.00000000       1348.64099      -1.54207432    
   3.53553391       3.53553391      -8.00000000       1348.64099      -1.54207432    
   3.93283010       3.01776695      -8.00000000       1348.64099      -1.54207432    
   3.93283010       3.01776695      -9.00000000       1348.64099      -1.54207432    
   3.53553391       3.53553391      -8.00000000       1509.94849      -1.54300976    
   3.53553391       3.53553391      -7.00000000       1509.94849      -1.54300976    
   3.93283010       3.01776695      -7.00000000       1509.94849      -1.54300976    
   3.93283010       3.01776695      -8.00000000       1509.94849      -1.54300976    
   3.53553391       3.53553391      -7.00000000       1624.71362      -1.54327691    
   3.53553391       3.53553391      -6.00000000       1624.71362      -1.54327691    
   3.93283010       3.01776695      -6.00000000       1624.71362      -1.54327691    
   3.93283010       3.01776695      -7.00000000       1624.71362      -1.54327691    
   3.53553391       3.53553391      -6.00000000       1713.24878      -1.54323137    
   3.53553391       3.53553391      -5.00000000       1713.24878      -1.54323137    
   3.93283010       3.01776695      -5.00000000       1713.24878      -1.54323137    
   3.93283010       3.01776695      -6.00000000       1713.24878      -1.54323137    
   3.53553391       3.53553391      -5.00000000       1785.98328      -1.54302037    
   3.53553391       3.53553391      -4.00000000       1785.98328      -1.54302037    
   3.93283010       3.01776695      -4.00000000       1785.98328      -1.54302037    
   3.93283010       3.01776695      -5.00000000       1785.98328      -1.54302037    
   3.53553391       3.53553391      -4.00000000       1849.14343      -1.54272163    
   3.53553391       3.53553391      -3.00000000       1849.14343      -1.54272163    
   3.93283010       3.01776695      -3.00000000       1849.14343      -1.54272163    
   3.93283010       3.01776695      -4.00000000       1849.14343      -1.54272163    
   3.53553391       3.53553391      -3.00000000       1906.68823      -1.54238641    
   3.53553391       3.53553391      -2.00000000       1906.68823      -1.54238641    
   3.93283010       3.01776695      -2.00000000       1906.68823      -1.54238641    
   3.93283010       3.01776695      -3.00000000       1906.68823      -1.54238641    
   3.53553391       3.53553391      -2.00000000       1963.08569      -1.54206598    
   3.53553391       3.53553391      -1.00000000       1963.08569      -1.54206598    
   3.93283010       3.01776695      -1.00000000       1963.08569      -1.54206598    
   3.93283010       3.01776695      -2.00000000       1963.08569      -1.54206598    
   3.53553391       3.53553391      -1.00000000       2023.21729      -1.54182839    
   3.53553391       3.53553391       0.00000000       2023.21729      -1.54182839    
   3.93283010       3.01776695       0.00000000       2023.21729      -1.54182839    
   3.93283010       3.01776695      -1.00000000       2023.21729      -1.54182839    
   3.93283010       3.01776695      -10.0000000       925.393738      -1.53936601    
   3.93283010       3.01776695      -9.00000000       925.393738      -1.53936601    
   4.33012676       2.50000000      -9.00000000       925.393738      -1.53936601    
   4.33012676       2.50000000      -10.0000000       925.393738      -1.53936601    
   3.93283010       3.01776695      -9.00000000       1158.90527      -1.54241979    
   3.93283010       3.01776695      -8.00000000       1158.90527      -1.54241979    
   4.33012676       2.50000000      -8.00000000       1158.90527      -1.54241979    
   4.33012676       2.50000000      -9.00000000       1158.90527      -1.54241979    
   3.93283010       3.01776695      -8.00000000       1295.93237      -1.54330838    
   3.93283010       3.01776695      -7.00000000       1295.93237      -1.54330838    
   4.33012676       2.50000000      -7.00000000       1295.93237      -1.54330838    
   4.33012676       2.50000000      -8.00000000       1295.93237      -1.54330838    
   3.93283010       3.01776695      -7.00000000       1393.42542      -1.54355264    
   3.93283010       3.01776695      -6.00000000       1393.42542      -1.54355264    
   4.33012676       2.50000000      -6.00000000       1393.42542      -1.54355264    
   4.33012676       2.50000000      -7.00000000       1393.42542      -1.54355264    
   3.93283010       3.01776695      -6.00000000       1468.60498      -1.54349339    
   3.93283010       3.01776695      -5.00000000       1468.60498      -1.54349339    
   4.33012676       2.50000000      -5.00000000       1468.60498      -1.54349339    
   4.33012676       2.50000000      -6.00000000       1468.60498      -1.54349339    
   3.93283010       3.01776695      -5.00000000       1530.38953      -1.54327381    
   3.93283010       3.01776695      -4.00000000       1530.38953      -1.54327381    
   4.33012676       2.50000000      -4.00000000       1530.38953      -1.54327381    
   4.33012676       2.50000000      -5.00000000       1530.38953      -1.54327381    
   3.93283010       3.01776695      -4.00000000       1584.03577      -1.54297006    
   3.93283010       3.01776695      -3.00000000       1584.03577      -1.54297006    
   4.33012676       2.50000000      -3.00000000       1584.03577      -1.54297006    
   4.33012676       2.50000000      -4.00000000       1584.03577      -1.54297006    
   3.93283010       3.01776695      -3.00000000       1632.89453      -1.54263031    
   3.93283010       3.01776695      -2.00000000       1632.89453      -1.54263031    
   4.33012676       2.50000000      -2.00000000       1632.89453      -1.54263031    
   4.33012676       2.50000000      -3.00000000       1632.89453      -1.54263031    
   3.93283010       3.01776695      -2.00000000       1680.78918      -1.54230523    
   3.93283010       3.01776695      -1.00000000       1680.78918      -1.54230523    
   4.33012676       2.50000000      -1.00000000       1680.78918      -1.54230523    
   4.33012676       2.50000000      -2.00000000       1680.78918      -1.54230523    
   3.93283010       3.01776695      -1.00000000       1731.70691      -1.54206204    
   3.93283010       3.01776695       0.00000000       1731.70691      -1.54206204    
   4.33012676       2.50000000       0.00000000       1731.70691      -1.54206204    
   4.33012676       2.50000000      -1.00000000       1731.70691      -1.54206204    
   2.50000000       4.33012676      -10.0000000       1360.48840      -1.53898907    
   2.50000000       4.33012676      -9.00000000       1360.48840      -1.53898907    
   3.01776695       3.93283010      -9.00000000       1360.48840      -1.53898907    
   3.01776695       3.93283010      -10.0000000       1360.48840      -1.53898907    
   2.50000000       4.33012676      -9.00000000       1706.74121      -1.54213738    
   2.50000000       4.33012676      -8.00000000       1706.74121      -1.54213738    
   3.01776695       3.93283010      -8.00000000       1706.74121      -1.54213738    
   3.01776695       3.93283010      -9.00000000       1706.74121      -1.54213738    
   2.50000000       4.33012676      -8.00000000       1910.45752      -1.54306436    
   2.50000000       4.33012676      -7.00000000       1910.45752      -1.54306436    
   3.01776695       3.93283010      -7.00000000       1910.45752      -1.54306436    
   3.01776695       3.93283010      -8.00000000       1910.45752      -1.54306436    
   2.50000000       4.33012676      -7.00000000       2055.39429      -1.54332685    
   2.50000000       4.33012676      -6.00000000       2055.39429      -1.54332685    
   3.01776695       3.93283010      -6.00000000       2055.39429      -1.54332685    
   3.01776695       3.93283010      -7.00000000       2055.39429      -1.54332685    
   2.50000000       4.33012676      -6.00000000       2167.19849      -1.54327869    
   2.50000000       4.33012676      -5.00000000       2167.19849      -1.54327869    
   3.01776695       3.93283010      -5.00000000       2167.19849      -1.54327869    
   3.01776695       3.93283010      -6.00000000       2167.19849      -1.54327869    
   2.50000000       4.33012676      -5.00000000       2259.05103      -1.54306626    
   2.50000000       4.33012676      -4.00000000       2259.05103      -1.54306626    
   3.01776695       3.93283010      -4.00000000       2259.05103      -1.54306626    
   3.01776695       3.93283010      -5.00000000       2259.05103      -1.54306626    
   2.50000000       4.33012676      -4.00000000       2338.81543      -1.54276669    
   2.50000000       4.33012676      -3.00000000       2338.81543      -1.54276669    
   3.01776695       3.93283010      -3.00000000       2338.81543      -1.54276669    
   3.01776695       3.93283010      -4.00000000       2338.81543      -1.54276669    
   2.50000000       4.33012676      -3.00000000       2411.48242      -1.54243100    
   2.50000000       4.33012676      -2.00000000       2411.48242      -1.54243100    
   3.01776695       3.93283010      -2.00000000       2411.48242      -1.54243100    
   3.01776695       3.93283010      -3.00000000       2411.48242      -1.54243100    
   2.50000000       4.33012676      -2.00000000       2482.70068      -1.54210997    
   2.50000000       4.33012676      -1.00000000       2482.70068      -1.54210997    
   3.01776695       3.93283010      -1.00000000       2482.70068      -1.54210997    
   3.01776695       3.93283010      -2.00000000       2482.70068      -1.54210997    
   2.50000000       4.33012676      -1.00000000       2558.60107      -1.54187047    
   2.50000000       4.33012676       0.00000000       2558.60107      -1.54187047    
   3.01776695       3.93283010       0.00000000       2558.60107      -1.54187047    
   3.01776695       3.93283010      -1.00000000       2558.60107      -1.54187047    
   3.01776695       3.93283010      -10.0000000       1245.98010      -1.53925884    
   3.01776695       3.93283010      -9.00000000       1245.98010      -1.53925884    
   3.53553391       3.53553391      -9.00000000       1245.98010      -1.53925884    
   3.53553391       3.53553391      -10.0000000       1245.98010      -1.53925884    
   3.01776695       3.93283010      -9.00000000       1561.15674      -1.54233921    
   3.01776695       3.93283010      -8.00000000       1561.15674      -1.54233921    
   3.53553391       3.53553391      -8.00000000       1561.15674      -1.54233921    
   3.53553391       3.53553391      -9.00000000       1561.15674      -1.54233921    
   3.01776695       3.93283010      -8.00000000       1746.24133      -1.54324055    
   3.01776695       3.93283010      -7.00000000       1746.24133      -1.54324055    
   3.53553391       3.53553391      -7.00000000       1746.24133      -1.54324055    
   3.53553391       3.53553391      -8.00000000       1746.24133      -1.54324055    
   3.01776695       3.93283010      -7.00000000       1877.92090      -1.54348814    
   3.01776695       3.93283010      -6.00000000       1877.92090      -1.54348814    
   3.53553391       3.53553391      -6.00000000       1877.92090      -1.54348814    
   3.53553391       3.53553391      -7.00000000       1877.92090      -1.54348814    
   3.01776695       3.93283010      -6.00000000       1979.47900      -1.54343176    
   3.01776695       3.93283010      -5.00000000       1979.47900      -1.54343176    
   3.53553391       3.53553391      -5.00000000       1979.47900      -1.54343176    
   3.53553391       3.53553391      -6.00000000       1979.47900      -1.54343176    
   3.01776695       3.93283010      -5.00000000       2062.92578      -1.54321468    
   3.01776695       3.93283010      -4.00000000       2062.92578      -1.54321468    
   3.53553391       3.53553391      -4.00000000       2062.92578      -1.54321468    
   3.53553391       3.53553391      -5.00000000       2062.92578      -1.54321468    
   3.01776695       3.93283010      -4.00000000       2135.38916      -1.54291284    
   3.01776695       3.93283010      -3.00000000       2135.38916      -1.54291284    
   3.53553391       3.53553391      -3.00000000       2135.38916      -1.54291284    
   3.53553391       3.53553391      -4.00000000       2135.38916      -1.54291284    
   3.01776695       3.93283010      -3.00000000       2201.39502      -1.54257393    
   3.01776695       3.93283010      -2.00000000       2201.39502      -1.54257393    
   3.53553391       3.53553391      -2.00000000       2201.39502      -1.54257393    
   3.53553391       3.53553391      -3.00000000       2201.39502      -1.54257393    
   3.01776695       3.93283010      -2.00000000       2266.08521      -1.54225004    
   3.01776695       3.93283010      -1.00000000       2266.08521      -1.54225004    
   3.53553391       3.53553391      -1.00000000       2266.08521      -1.54225004    
   3.53553391       3.53553391      -2.00000000       2266.08521      -1.54225004    
   3.01776695       3.93283010      -1.00000000       2334.91772      -1.54200816    
   3.01776695       3.93283010       0.00000000       2334.91772      -1.54200816    
   3.53553391       3.53553391       0.00000000       2334.91772      -1.54200816    
   3.53553391       3.53553391      -1.00000000       2334.91772      -1.54200816    
   1.29409504       4.82962894      -10.0000000       1553.64160      -1.53904712    
   1.29409504       4.82962894      -9.00000000       1553.64160      -1.53904712    
   1.89704800       4.57987785      -9.00000000       1553.64160      -1.53904712    
   1.89704800       4.57987785      -10.0000000       1553.64160      -1.53904712    
   1.29409504       4.82962894      -9.00000000       1948.53284      -1.54217982    
   1.29409504       4.82962894      -8.00000000       1948.53284      -1.54217982    
   1.89704800       4.57987785      -8.00000000       1948.53284      -1.54217982    
   1.89704800       4.57987785      -9.00000000       1948.53284      -1.54217982    
   1.29409504       4.82962894      -8.00000000       2180.77246      -1.54310191    
   1.29409504       4.82962894      -7.00000000       2180.77246      -1.54310191    
   1.89704800       4.57987785      -7.00000000       2180.77246      -1.54310191    
   1.89704800       4.57987785      -8.00000000       2180.77246      -1.54310191    
   1.29409504       4.82962894      -7.00000000       2346.00513      -1.54336131    
   1.29409504       4.82962894      -6.00000000       2346.00513      -1.54336131    
   1.89704800       4.57987785      -6.00000000       2346.00513      -1.54336131    
   1.89704800       4.57987785      -7.00000000       2346.00513      -1.54336131    
   1.29409504       4.82962894      -6.00000000       2473.45703      -1.54331148    
   1.29409504       4.82962894      -5.00000000       2473.45703      -1.54331148    
   1.89704800       4.57987785      -5.00000000       2473.45703      -1.54331148    
   1.89704800       4.57987785      -6.00000000       2473.45703      -1.54331148    
   1.29409504       4.82962894      -5.00000000       2578.17041      -1.54309809    
   1.29409504       4.82962894      -4.00000000       2578.17041      -1.54309809    
   1.89704800       4.57987785      -4.00000000       2578.17041      -1.54309809    
   1.89704800       4.57987785      -5.00000000       2578.17041      -1.54309809    
   1.29409504       4.82962894      -4.00000000       2669.10229      -1.54279816    
   1.29409504       4.82962894      -3.00000000       2669.10229      -1.54279816    
   1.89704800       4.57987785      -3.00000000       2669.10229      -1.54279816    