 VARIABLES="X" "Y" "Z" "abs(p) (Pa)" "angle(p) (rad)"
ZONE N=   1080,E =     600, F=FEPOINT, ET=QUADRILATERAL
   4.82962894       1.29409504      -10.0000000       99.1890564       1.57088447    
   4.82962894       1.29409504      -9.00000000       99.1890564       1.57088447    
   4.91481400      0.647047520      -9.00000000       99.1890564       1.57088447    
   4.91481400      0.647047520      -10.0000000       99.1890564       1.57088447    
   4.82962894       1.29409504      -9.00000000       118.301712       1.57087708    
   4.82962894       1.29409504      -8.00000000       118.301712       1.57087708    
   4.91481400      0.647047520      -8.00000000       118.301712       1.57087708    
   4.91481400      0.647047520      -9.00000000       118.301712       1.57087708    
   4.82962894       1.29409504      -8.00000000       179.223801       1.57085156    
   4.82962894       1.29409504      -7.00000000       179.223801       1.57085156    
   4.91481400      0.647047520      -7.00000000       179.223801       1.57085156    
   4.91481400      0.647047520      -8.00000000       179.223801       1.57085156    
   4.82962894       1.29409504      -7.00000000       256.896790       1.57083654    
   4.82962894       1.29409504      -6.00000000       256.896790       1.57083654    
   4.91481400      0.647047520      -6.00000000       256.896790       1.57083654    
   4.91481400      0.647047520      -7.00000000       256.896790       1.57083654    
   4.82962894       1.29409504      -6.00000000       342.486603       1.57082713    
   4.82962894       1.29409504      -5.00000000       342.486603       1.57082713    
   4.91481400      0.647047520      -5.00000000       342.486603       1.57082713    
   4.91481400      0.647047520      -6.00000000       342.486603       1.57082713    
   4.82962894       1.29409504      -5.00000000       430.721283       1.57082129    
   4.82962894       1.29409504      -4.00000000       430.721283       1.57082129    
   4.91481400      0.647047520      -4.00000000       430.721283       1.57082129    
   4.91481400      0.647047520      -5.00000000       430.721283       1.57082129    
   4.82962894       1.29409504      -4.00000000       516.926270       1.57081747    
   4.82962894       1.29409504      -3.00000000       516.926270       1.57081747    
   4.91481400      0.647047520      -3.00000000       516.926270       1.57081747    
   4.91481400      0.647047520      -4.00000000       516.926270       1.57081747    
   4.82962894       1.29409504      -3.00000000       596.517029       1.57081473    
   4.82962894       1.29409504      -2.00000000       596.517029       1.57081473    
   4.91481400      0.647047520      -2.00000000       596.517029       1.57081473    
   4.91481400      0.647047520      -3.00000000       596.517029       1.57081473    
   4.82962894       1.29409504      -2.00000000       663.924622       1.57081306    
   4.82962894       1.29409504      -1.00000000       663.924622       1.57081306    
   4.91481400      0.647047520      -1.00000000       663.924622       1.57081306    
   4.91481400      0.647047520      -2.00000000       663.924622       1.57081306    
   4.82962894       1.29409504      -1.00000000       708.990356       1.57081211    
   4.82962894       1.29409504       0.00000000       708.990356       1.57081211    
   4.91481400      0.647047520       0.00000000       708.990356       1.57081211    
   4.91481400      0.647047520      -1.00000000       708.990356       1.57081211    
   4.91481400      0.647047520      -10.0000000       28.7645683       1.57090306    
   4.91481400      0.647047520      -9.00000000       28.7645683       1.57090306    
   5.00000000       0.00000000      -9.00000000       28.7645683       1.57090306    
   5.00000000       0.00000000      -10.0000000       28.7645683       1.57090306    
   4.91481400      0.647047520      -9.00000000       38.4679565       1.57088435    
   4.91481400      0.647047520      -8.00000000       38.4679565       1.57088435    
   5.00000000       0.00000000      -8.00000000       38.4679565       1.57088435    
   5.00000000       0.00000000      -9.00000000       38.4679565       1.57088435    
   4.91481400      0.647047520      -8.00000000       63.7831879       1.57085145    
   4.91481400      0.647047520      -7.00000000       63.7831879       1.57085145    
   5.00000000       0.00000000      -7.00000000       63.7831879       1.57085145    
   5.00000000       0.00000000      -8.00000000       63.7831879       1.57085145    
   4.91481400      0.647047520      -7.00000000       95.0712204       1.57083499    
   4.91481400      0.647047520      -6.00000000       95.0712204       1.57083499    
   5.00000000       0.00000000      -6.00000000       95.0712204       1.57083499    
   5.00000000       0.00000000      -7.00000000       95.0712204       1.57083499    
   4.91481400      0.647047520      -6.00000000       129.215103       1.57082546    
   4.91481400      0.647047520      -5.00000000       129.215103       1.57082546    
   5.00000000       0.00000000      -5.00000000       129.215103       1.57082546    
   5.00000000       0.00000000      -6.00000000       129.215103       1.57082546    
   4.91481400      0.647047520      -5.00000000       164.280960       1.57081962    
   4.91481400      0.647047520      -4.00000000       164.280960       1.57081962    
   5.00000000       0.00000000      -4.00000000       164.280960       1.57081962    
   5.00000000       0.00000000      -5.00000000       164.280960       1.57081962    
   4.91481400      0.647047520      -4.00000000       198.699661       1.57081556    
   4.91481400      0.647047520      -3.00000000       198.699661       1.57081556    
   5.00000000       0.00000000      -3.00000000       198.699661       1.57081556    
   5.00000000       0.00000000      -4.00000000       198.699661       1.57081556    
   4.91481400      0.647047520      -3.00000000       230.711380       1.57081270    
   4.91481400      0.647047520      -2.00000000       230.711380       1.57081270    
   5.00000000       0.00000000      -2.00000000       230.711380       1.57081270    
   5.00000000       0.00000000      -3.00000000       230.711380       1.57081270    
   4.91481400      0.647047520      -2.00000000       258.386353       1.57081163    
   4.91481400      0.647047520      -1.00000000       258.386353       1.57081163    
   5.00000000       0.00000000      -1.00000000       258.386353       1.57081163    
   5.00000000       0.00000000      -2.00000000       258.386353       1.57081163    
   4.91481400      0.647047520      -1.00000000       277.800232       1.57081091    
   4.91481400      0.647047520       0.00000000       277.800232       1.57081091    
   5.00000000       0.00000000       0.00000000       277.800232       1.57081091    
   5.00000000       0.00000000      -1.00000000       277.800232       1.57081091    
   4.33012676       2.50000000      -10.0000000       220.384872       1.57088685    
   4.33012676       2.50000000      -9.00000000       220.384872       1.57088685    
   4.57987785       1.89704800      -9.00000000       220.384872       1.57088685    
   4.57987785       1.89704800      -10.0000000       220.384872       1.57088685    
   4.33012676       2.50000000      -9.00000000       267.009949       1.57087815    
   4.33012676       2.50000000      -8.00000000       267.009949       1.57087815    
   4.57987785       1.89704800      -8.00000000       267.009949       1.57087815    
   4.57987785       1.89704800      -9.00000000       267.009949       1.57087815    
   4.33012676       2.50000000      -8.00000000       410.018494       1.57085216    
   4.33012676       2.50000000      -7.00000000       410.018494       1.57085216    
   4.57987785       1.89704800      -7.00000000       410.018494       1.57085216    
   4.57987785       1.89704800      -8.00000000       410.018494       1.57085216    
   4.33012676       2.50000000      -7.00000000       591.360229       1.57083631    
   4.33012676       2.50000000      -6.00000000       591.360229       1.57083631    
   4.57987785       1.89704800      -6.00000000       591.360229       1.57083631    
   4.57987785       1.89704800      -7.00000000       591.360229       1.57083631    
   4.33012676       2.50000000      -6.00000000       790.845398       1.57082677    
   4.33012676       2.50000000      -5.00000000       790.845398       1.57082677    
   4.57987785       1.89704800      -5.00000000       790.845398       1.57082677    
   4.57987785       1.89704800      -6.00000000       790.845398       1.57082677    
   4.33012676       2.50000000      -5.00000000       996.368530       1.57082093    
   4.33012676       2.50000000      -4.00000000       996.368530       1.57082093    
   4.57987785       1.89704800      -4.00000000       996.368530       1.57082093    
   4.57987785       1.89704800      -5.00000000       996.368530       1.57082093    
   4.33012676       2.50000000      -4.00000000       1197.32422       1.57081711    
   4.33012676       2.50000000      -3.00000000       1197.32422       1.57081711    
   4.57987785       1.89704800      -3.00000000       1197.32422       1.57081711    
   4.57987785       1.89704800      -4.00000000       1197.32422       1.57081711    
   4.33012676       2.50000000      -3.00000000       1383.09839       1.57081449    
   4.33012676       2.50000000      -2.00000000       1383.09839       1.57081449    
   4.57987785       1.89704800      -2.00000000       1383.09839       1.57081449    
   4.57987785       1.89704800      -3.00000000       1383.09839       1.57081449    
   4.33012676       2.50000000      -2.00000000       1540.99146       1.57081270    
   4.33012676       2.50000000      -1.00000000       1540.99146       1.57081270    
   4.57987785       1.89704800      -1.00000000       1540.99146       1.57081270    
   4.57987785       1.89704800      -2.00000000       1540.99146       1.57081270    
   4.33012676       2.50000000      -1.00000000       1647.46252       1.57081187    
   4.33012676       2.50000000       0.00000000       1647.46252       1.57081187    
   4.57987785       1.89704800       0.00000000       1647.46252       1.57081187    
   4.57987785       1.89704800      -1.00000000       1647.46252       1.57081187    
   4.57987785       1.89704800      -10.0000000       154.758408       1.57089174    
   4.57987785       1.89704800      -9.00000000       154.758408       1.57089174    
   4.82962894       1.29409504      -9.00000000       154.758408       1.57089174    
   4.82962894       1.29409504      -10.0000000       154.758408       1.57089174    
   4.57987785       1.89704800      -9.00000000       192.617477       1.57087958    
   4.57987785       1.89704800      -8.00000000       192.617477       1.57087958    
   4.82962894       1.29409504      -8.00000000       192.617477       1.57087958    
   4.82962894       1.29409504      -9.00000000       192.617477       1.57087958    
   4.57987785       1.89704800      -8.00000000       302.443390       1.57085216    
   4.57987785       1.89704800      -7.00000000       302.443390       1.57085216    
   4.82962894       1.29409504      -7.00000000       302.443390       1.57085216    
   4.82962894       1.29409504      -8.00000000       302.443390       1.57085216    
   4.57987785       1.89704800      -7.00000000       440.563354       1.57083583    
   4.57987785       1.89704800      -6.00000000       440.563354       1.57083583    
   4.82962894       1.29409504      -6.00000000       440.563354       1.57083583    
   4.82962894       1.29409504      -7.00000000       440.563354       1.57083583    
   4.57987785       1.89704800      -6.00000000       592.109314       1.57082629    
   4.57987785       1.89704800      -5.00000000       592.109314       1.57082629    
   4.82962894       1.29409504      -5.00000000       592.109314       1.57082629    
   4.82962894       1.29409504      -6.00000000       592.109314       1.57082629    
   4.57987785       1.89704800      -5.00000000       748.086365       1.57082057    
   4.57987785       1.89704800      -4.00000000       748.086365       1.57082057    
   4.82962894       1.29409504      -4.00000000       748.086365       1.57082057    
   4.82962894       1.29409504      -5.00000000       748.086365       1.57082057    
   4.57987785       1.89704800      -4.00000000       900.786133       1.57081664    
   4.57987785       1.89704800      -3.00000000       900.786133       1.57081664    
   4.82962894       1.29409504      -3.00000000       900.786133       1.57081664    
   4.82962894       1.29409504      -4.00000000       900.786133       1.57081664    
   4.57987785       1.89704800      -3.00000000       1042.21887       1.57081401    
   4.57987785       1.89704800      -2.00000000       1042.21887       1.57081401    
   4.82962894       1.29409504      -2.00000000       1042.21887       1.57081401    
   4.82962894       1.29409504      -3.00000000       1042.21887       1.57081401    
   4.57987785       1.89704800      -2.00000000       1163.09314       1.57081234    
   4.57987785       1.89704800      -1.00000000       1163.09314       1.57081234    
   4.82962894       1.29409504      -1.00000000       1163.09314       1.57081234    
   4.82962894       1.29409504      -2.00000000       1163.09314       1.57081234    
   4.57987785       1.89704800      -1.00000000       1245.65613       1.57081139    
   4.57987785       1.89704800       0.00000000       1245.65613       1.57081139    
   4.82962894       1.29409504       0.00000000       1245.65613       1.57081139    
   4.82962894       1.29409504      -1.00000000       1245.65613       1.57081139    
   3.53553391       3.53553391      -10.0000000       326.559296       1.57088780    
   3.53553391       3.53553391      -9.00000000       326.559296       1.57088780    
   3.93283010       3.01776695      -9.00000000       326.559296       1.57088780    
   3.93283010       3.01776695      -10.0000000       326.559296       1.57088780    
   3.53553391       3.53553391      -9.00000000       397.521576       1.57087839    
   3.53553391       3.53553391      -8.00000000       397.521576       1.57087839    
   3.93283010       3.01776695      -8.00000000       397.521576       1.57087839    
   3.93283010       3.01776695      -9.00000000       397.521576       1.57087839    
   3.53553391       3.53553391      -8.00000000       612.869019       1.57085204    
   3.53553391       3.53553391      -7.00000000       612.869019       1.57085204    
   3.93283010       3.01776695      -7.00000000       612.869019       1.57085204    
   3.93283010       3.01776695      -8.00000000       612.869019       1.57085204    
   3.53553391       3.53553391      -7.00000000       885.522583       1.57083619    
   3.53553391       3.53553391      -6.00000000       885.522583       1.57083619    
   3.93283010       3.01776695      -6.00000000       885.522583       1.57083619    
   3.93283010       3.01776695      -7.00000000       885.522583       1.57083619    
   3.53553391       3.53553391      -6.00000000       1185.31213       1.57082677    
   3.53553391       3.53553391      -5.00000000       1185.31213       1.57082677    
   3.93283010       3.01776695      -5.00000000       1185.31213       1.57082677    
   3.93283010       3.01776695      -6.00000000       1185.31213       1.57082677    
   3.53553391       3.53553391      -5.00000000       1494.11523       1.57082081    
   3.53553391       3.53553391      -4.00000000       1494.11523       1.57082081    
   3.93283010       3.01776695      -4.00000000       1494.11523       1.57082081    
   3.93283010       3.01776695      -5.00000000       1494.11523       1.57082081    
   3.53553391       3.53553391      -4.00000000       1796.12805       1.57081699    
   3.53553391       3.53553391      -3.00000000       1796.12805       1.57081699    
   3.93283010       3.01776695      -3.00000000       1796.12805       1.57081699    
   3.93283010       3.01776695      -4.00000000       1796.12805       1.57081699    
   3.53553391       3.53553391      -3.00000000       2075.41968       1.57081437    
   3.53553391       3.53553391      -2.00000000       2075.41968       1.57081437    
   3.93283010       3.01776695      -2.00000000       2075.41968       1.57081437    
   3.93283010       3.01776695      -3.00000000       2075.41968       1.57081437    
   3.53553391       3.53553391      -2.00000000       2313.04150       1.57081270    
   3.53553391       3.53553391      -1.00000000       2313.04150       1.57081270    
   3.93283010       3.01776695      -1.00000000       2313.04150       1.57081270    
   3.93283010       3.01776695      -2.00000000       2313.04150       1.57081270    
   3.53553391       3.53553391      -1.00000000       2473.66577       1.57081175    
   3.53553391       3.53553391       0.00000000       2473.66577       1.57081175    
   3.93283010       3.01776695       0.00000000       2473.66577       1.57081175    
   3.93283010       3.01776695      -1.00000000       2473.66577       1.57081175    
   3.93283010       3.01776695      -10.0000000       270.205963       1.57089007    
   3.93283010       3.01776695      -9.00000000       270.205963       1.57089007    
   4.33012676       2.50000000      -9.00000000       270.205963       1.57089007    
   4.33012676       2.50000000      -10.0000000       270.205963       1.57089007    
   3.93283010       3.01776695      -9.00000000       333.638123       1.57087910    
   3.93283010       3.01776695      -8.00000000       333.638123       1.57087910    
   4.33012676       2.50000000      -8.00000000       333.638123       1.57087910    
   4.33012676       2.50000000      -9.00000000       333.638123       1.57087910    
   3.93283010       3.01776695      -8.00000000       520.493591       1.57085216    
   3.93283010       3.01776695      -7.00000000       520.493591       1.57085216    
   4.33012676       2.50000000      -7.00000000       520.493591       1.57085216    
   4.33012676       2.50000000      -8.00000000       520.493591       1.57085216    
   3.93283010       3.01776695      -7.00000000       756.030640       1.57083583    
   3.93283010       3.01776695      -6.00000000       756.030640       1.57083583    
   4.33012676       2.50000000      -6.00000000       756.030640       1.57083583    
   4.33012676       2.50000000      -7.00000000       756.030640       1.57083583    
   3.93283010       3.01776695      -6.00000000       1014.65179       1.57082653    
   3.93283010       3.01776695      -5.00000000       1014.65179       1.57082653    
   4.33012676       2.50000000      -5.00000000       1014.65179       1.57082653    
   4.33012676       2.50000000      -6.00000000       1014.65179       1.57082653    
   3.93283010       3.01776695      -5.00000000       1280.91199       1.57082069    
   3.93283010       3.01776695      -4.00000000       1280.91199       1.57082069    
   4.33012676       2.50000000      -4.00000000       1280.91199       1.57082069    
   4.33012676       2.50000000      -5.00000000       1280.91199       1.57082069    
   3.93283010       3.01776695      -4.00000000       1541.48596       1.57081687    
   3.93283010       3.01776695      -3.00000000       1541.48596       1.57081687    
   4.33012676       2.50000000      -3.00000000       1541.48596       1.57081687    
   4.33012676       2.50000000      -4.00000000       1541.48596       1.57081687    
   3.93283010       3.01776695      -3.00000000       1782.70105       1.57081425    
   3.93283010       3.01776695      -2.00000000       1782.70105       1.57081425    
   4.33012676       2.50000000      -2.00000000       1782.70105       1.57081425    
   4.33012676       2.50000000      -3.00000000       1782.70105       1.57081425    
   3.93283010       3.01776695      -2.00000000       1988.53381       1.57081246    
   3.93283010       3.01776695      -1.00000000       1988.53381       1.57081246    
   4.33012676       2.50000000      -1.00000000       1988.53381       1.57081246    
   4.33012676       2.50000000      -2.00000000       1988.53381       1.57081246    
   3.93283010       3.01776695      -1.00000000       2128.62500       1.57081151    
   3.93283010       3.01776695       0.00000000       2128.62500       1.57081151    
   4.33012676       2.50000000       0.00000000       2128.62500       1.57081151    
   4.33012676       2.50000000      -1.00000000       2128.62500       1.57081151    
   2.50000000       4.33012676      -10.0000000       410.479889       1.57088816    
   2.50000000       4.33012676      -9.00000000       410.479889       1.57088816    
   3.01776695       3.93283010      -9.00000000       410.479889       1.57088816    
   3.01776695       3.93283010      -10.0000000       410.479889       1.57088816    
   2.50000000       4.33012676      -9.00000000       500.942413       1.57087851    
   2.50000000       4.33012676      -8.00000000       500.942413       1.57087851    
   3.01776695       3.93283010      -8.00000000       500.942413       1.57087851    
   3.01776695       3.93283010      -9.00000000       500.942413       1.57087851    
   2.50000000       4.33012676      -8.00000000       773.953613       1.57085204    
   2.50000000       4.33012676      -7.00000000       773.953613       1.57085204    
   3.01776695       3.93283010      -7.00000000       773.953613       1.57085204    
   3.01776695       3.93283010      -8.00000000       773.953613       1.57085204    
   2.50000000       4.33012676      -7.00000000       1119.33887       1.57083607    
   2.50000000       4.33012676      -6.00000000       1119.33887       1.57083607    
   3.01776695       3.93283010      -6.00000000       1119.33887       1.57083607    
   3.01776695       3.93283010      -7.00000000       1119.33887       1.57083607    
   2.50000000       4.33012676      -6.00000000       1499.00159       1.57082665    
   2.50000000       4.33012676      -5.00000000       1499.00159       1.57082665    
   3.01776695       3.93283010      -5.00000000       1499.00159       1.57082665    
   3.01776695       3.93283010      -6.00000000       1499.00159       1.57082665    
   2.50000000       4.33012676      -5.00000000       1890.04346       1.57082093    
   2.50000000       4.33012676      -4.00000000       1890.04346       1.57082093    
   3.01776695       3.93283010      -4.00000000       1890.04346       1.57082093    
   3.01776695       3.93283010      -5.00000000       1890.04346       1.57082093    
   2.50000000       4.33012676      -4.00000000       2272.53125       1.57081699    
   2.50000000       4.33012676      -3.00000000       2272.53125       1.57081699    
   3.01776695       3.93283010      -3.00000000       2272.53125       1.57081699    
   3.01776695       3.93283010      -4.00000000       2272.53125       1.57081699    
   2.50000000       4.33012676      -3.00000000       2626.30859       1.57081437    
   2.50000000       4.33012676      -2.00000000       2626.30859       1.57081437    
   3.01776695       3.93283010      -2.00000000       2626.30859       1.57081437    
   3.01776695       3.93283010      -3.00000000       2626.30859       1.57081437    
   2.50000000       4.33012676      -2.00000000       2927.46216       1.57081258    
   2.50000000       4.33012676      -1.00000000       2927.46216       1.57081258    
   3.01776695       3.93283010      -1.00000000       2927.46216       1.57081258    
   3.01776695       3.93283010      -2.00000000       2927.46216       1.57081258    
   2.50000000       4.33012676      -1.00000000       3131.29248       1.57081163    
   2.50000000       4.33012676       0.00000000       3131.29248       1.57081163    
   3.01776695       3.93283010       0.00000000       3131.29248       1.57081163    
   3.01776695       3.93283010      -1.00000000       3131.29248       1.57081163    
   3.01776695       3.93283010      -10.0000000       367.239502       1.57088971    
   3.01776695       3.93283010      -9.00000000       367.239502       1.57088971    
   3.53553391       3.53553391      -9.00000000       367.239502       1.57088971    
   3.53553391       3.53553391      -10.0000000       367.239502       1.57088971    
   3.01776695       3.93283010      -9.00000000       451.922913       1.57087910    
   3.01776695       3.93283010      -8.00000000       451.922913       1.57087910    
   3.53553391       3.53553391      -8.00000000       451.922913       1.57087910    
   3.53553391       3.53553391      -9.00000000       451.922913       1.57087910    
   3.01776695       3.93283010      -8.00000000       703.070557       1.57085216    
   3.01776695       3.93283010      -7.00000000       703.070557       1.57085216    
   3.53553391       3.53553391      -7.00000000       703.070557       1.57085216    
   3.53553391       3.53553391      -8.00000000       703.070557       1.57085216    
   3.01776695       3.93283010      -7.00000000       1019.97388       1.57083595    
   3.01776695       3.93283010      -6.00000000       1019.97388       1.57083595    
   3.53553391       3.53553391      -6.00000000       1019.97388       1.57083595    
   3.53553391       3.53553391      -7.00000000       1019.97388       1.57083595    
   3.01776695       3.93283010      -6.00000000       1368.04944       1.57082653    
   3.01776695       3.93283010      -5.00000000       1368.04944       1.57082653    
   3.53553391       3.53553391      -5.00000000       1368.04944       1.57082653    
   3.53553391       3.53553391      -6.00000000       1368.04944       1.57082653    
   3.01776695       3.93283010      -5.00000000       1726.44458       1.57082069    
   3.01776695       3.93283010      -4.00000000       1726.44458       1.57082069    
   3.53553391       3.53553391      -4.00000000       1726.44458       1.57082069    
   3.53553391       3.53553391      -5.00000000       1726.44458       1.57082069    
   3.01776695       3.93283010      -4.00000000       2077.13550       1.57081676    
   3.01776695       3.93283010      -3.00000000       2077.13550       1.57081676    
   3.53553391       3.53553391      -3.00000000       2077.13550       1.57081676    
   3.53553391       3.53553391      -4.00000000       2077.13550       1.57081676    
   3.01776695       3.93283010      -3.00000000       2401.69727       1.57081425    
   3.01776695       3.93283010      -2.00000000       2401.69727       1.57081425    
   3.53553391       3.53553391      -2.00000000       2401.69727       1.57081425    
   3.53553391       3.53553391      -3.00000000       2401.69727       1.57081425    
   3.01776695       3.93283010      -2.00000000       2678.45752       1.57081258    
   3.01776695       3.93283010      -1.00000000       2678.45752       1.57081258    
   3.53553391       3.53553391      -1.00000000       2678.45752       1.57081258    
   3.53553391       3.53553391      -2.00000000       2678.45752       1.57081258    
   3.01776695       3.93283010      -1.00000000       2866.53394       1.57081151    
   3.01776695       3.93283010       0.00000000       2866.53394       1.57081151    
   3.53553391       3.53553391       0.00000000       2866.53394       1.57081151    
   3.53553391       3.53553391      -1.00000000       2866.53394       1.57081151    
   1.29409504       4.82962894      -10.0000000       466.429230       1.57088876    
   1.29409504       4.82962894      -9.00000000       466.429230       1.57088876    
   1.89704800       4.57987785      -9.00000000       466.429230       1.57088876    
   1.89704800       4.57987785      -10.0000000       466.429230       1.57088876    
   1.29409504       4.82962894      -9.00000000       570.224792       1.57087851    
   1.29409504       4.82962894      -8.00000000       570.224792       1.57087851    
   1.89704800       4.57987785      -8.00000000       570.224792       1.57087851    
   1.89704800       4.57987785      -9.00000000       570.224792       1.57087851    
   1.29409504       4.82962894      -8.00000000       882.297424       1.57085204    
   1.29409504       4.82962894      -7.00000000       882.297424       1.57085204    
   1.89704800       4.57987785      -7.00000000       882.297424       1.57085204    
   1.89704800       4.57987785      -8.00000000       882.297424       1.57085204    
   1.29409504       4.82962894      -7.00000000       1276.87317       1.57083607    
   1.29409504       4.82962894      -6.00000000       1276.87317       1.57083607    
   1.89704800       4.57987785      -6.00000000       1276.87317       1.57083607    
   1.89704800       4.57987785      -7.00000000       1276.87317       1.57083607    
   1.29409504       4.82962894      -6.00000000       1710.53564       1.57082677    
   1.29409504       4.82962894      -5.00000000       1710.53564       1.57082677    
   1.89704800       4.57987785      -5.00000000       1710.53564       1.57082677    
   1.89704800       4.57987785      -6.00000000       1710.53564       1.57082677    
   1.29409504       4.82962894      -5.00000000       2157.16382       1.57082081    
   1.29409504       4.82962894      -4.00000000       2157.16382       1.57082081    
   1.89704800       4.57987785      -4.00000000       2157.16382       1.57082081    
   1.89704800       4.57987785      -5.00000000       2157.16382       1.57082081    
   1.29409504       4.82962894      -4.00000000       2594.06177       1.57081699    
   1.29409504       4.82962894      -3.00000000       2594.06177       1.57081699    
   1.89704800       4.57987785      -3.00000000       2594.06177       1.57081699    