 VARIABLES="X" "Y" "Z" "abs(p) (Pa)" "angle(p) (rad)"
ZONE N=   1080,E =     600, F=FEPOINT, ET=QUADRILATERAL
   4.82962894       1.29409504      -10.0000000       734.697815      -1.57017243    
   4.82962894       1.29409504      -9.00000000       734.697815      -1.57017243    
   4.91481400      0.647047520      -9.00000000       734.697815      -1.57017243    
   4.91481400      0.647047520      -10.0000000       734.697815      -1.57017243    
   4.82962894       1.29409504      -9.00000000       922.773010      -1.57025146    
   4.82962894       1.29409504      -8.00000000       922.773010      -1.57025146    
   4.91481400      0.647047520      -8.00000000       922.773010      -1.57025146    
   4.91481400      0.647047520      -9.00000000       922.773010      -1.57025146    
   4.82962894       1.29409504      -8.00000000       1029.47974      -1.57028174    
   4.82962894       1.29409504      -7.00000000       1029.47974      -1.57028174    
   4.91481400      0.647047520      -7.00000000       1029.47974      -1.57028174    
   4.91481400      0.647047520      -8.00000000       1029.47974      -1.57028174    
   4.82962894       1.29409504      -7.00000000       1101.73633      -1.57029760    
   4.82962894       1.29409504      -6.00000000       1101.73633      -1.57029760    
   4.91481400      0.647047520      -6.00000000       1101.73633      -1.57029760    
   4.91481400      0.647047520      -7.00000000       1101.73633      -1.57029760    
   4.82962894       1.29409504      -6.00000000       1153.77808      -1.57030666    
   4.82962894       1.29409504      -5.00000000       1153.77808      -1.57030666    
   4.91481400      0.647047520      -5.00000000       1153.77808      -1.57030666    
   4.91481400      0.647047520      -6.00000000       1153.77808      -1.57030666    
   4.82962894       1.29409504      -5.00000000       1192.60693      -1.57031202    
   4.82962894       1.29409504      -4.00000000       1192.60693      -1.57031202    
   4.91481400      0.647047520      -4.00000000       1192.60693      -1.57031202    
   4.91481400      0.647047520      -5.00000000       1192.60693      -1.57031202    
   4.82962894       1.29409504      -4.00000000       1221.92163      -1.57031488    
   4.82962894       1.29409504      -3.00000000       1221.92163      -1.57031488    
   4.91481400      0.647047520      -3.00000000       1221.92163      -1.57031488    
   4.91481400      0.647047520      -4.00000000       1221.92163      -1.57031488    
   4.82962894       1.29409504      -3.00000000       1244.06494      -1.57031631    
   4.82962894       1.29409504      -2.00000000       1244.06494      -1.57031631    
   4.91481400      0.647047520      -2.00000000       1244.06494      -1.57031631    
   4.91481400      0.647047520      -3.00000000       1244.06494      -1.57031631    
   4.82962894       1.29409504      -2.00000000       1260.85669      -1.57031667    
   4.82962894       1.29409504      -1.00000000       1260.85669      -1.57031667    
   4.91481400      0.647047520      -1.00000000       1260.85669      -1.57031667    
   4.91481400      0.647047520      -2.00000000       1260.85669      -1.57031667    
   4.82962894       1.29409504      -1.00000000       1273.31641      -1.57031631    
   4.82962894       1.29409504       0.00000000       1273.31641      -1.57031631    
   4.91481400      0.647047520       0.00000000       1273.31641      -1.57031631    
   4.91481400      0.647047520      -1.00000000       1273.31641      -1.57031631    
   4.91481400      0.647047520      -10.0000000       745.780151      -1.57017124    
   4.91481400      0.647047520      -9.00000000       745.780151      -1.57017124    
   5.00000000       0.00000000      -9.00000000       745.780151      -1.57017124    
   5.00000000       0.00000000      -10.0000000       745.780151      -1.57017124    
   4.91481400      0.647047520      -9.00000000       936.911438      -1.57025087    
   4.91481400      0.647047520      -8.00000000       936.911438      -1.57025087    
   5.00000000       0.00000000      -8.00000000       936.911438      -1.57025087    
   5.00000000       0.00000000      -9.00000000       936.911438      -1.57025087    
   4.91481400      0.647047520      -8.00000000       1045.38574      -1.57028115    
   4.91481400      0.647047520      -7.00000000       1045.38574      -1.57028115    
   5.00000000       0.00000000      -7.00000000       1045.38574      -1.57028115    
   5.00000000       0.00000000      -8.00000000       1045.38574      -1.57028115    
   4.91481400      0.647047520      -7.00000000       1118.84045      -1.57029700    
   4.91481400      0.647047520      -6.00000000       1118.84045      -1.57029700    
   5.00000000       0.00000000      -6.00000000       1118.84045      -1.57029700    
   5.00000000       0.00000000      -7.00000000       1118.84045      -1.57029700    
   4.91481400      0.647047520      -6.00000000       1171.74805      -1.57030618    
   4.91481400      0.647047520      -5.00000000       1171.74805      -1.57030618    
   5.00000000       0.00000000      -5.00000000       1171.74805      -1.57030618    
   5.00000000       0.00000000      -6.00000000       1171.74805      -1.57030618    
   4.91481400      0.647047520      -5.00000000       1211.21899      -1.57031143    
   4.91481400      0.647047520      -4.00000000       1211.21899      -1.57031143    
   5.00000000       0.00000000      -4.00000000       1211.21899      -1.57031143    
   5.00000000       0.00000000      -5.00000000       1211.21899      -1.57031143    
   4.91481400      0.647047520      -4.00000000       1241.02039      -1.57031441    
   4.91481400      0.647047520      -3.00000000       1241.02039      -1.57031441    
   5.00000000       0.00000000      -3.00000000       1241.02039      -1.57031441    
   5.00000000       0.00000000      -4.00000000       1241.02039      -1.57031441    
   4.91481400      0.647047520      -3.00000000       1263.53186      -1.57031584    
   4.91481400      0.647047520      -2.00000000       1263.53186      -1.57031584    
   5.00000000       0.00000000      -2.00000000       1263.53186      -1.57031584    
   5.00000000       0.00000000      -3.00000000       1263.53186      -1.57031584    
   4.91481400      0.647047520      -2.00000000       1280.60181      -1.57031608    
   4.91481400      0.647047520      -1.00000000       1280.60181      -1.57031608    
   5.00000000       0.00000000      -1.00000000       1280.60181      -1.57031608    
   5.00000000       0.00000000      -2.00000000       1280.60181      -1.57031608    
   4.91481400      0.647047520      -1.00000000       1293.28162      -1.57031584    
   4.91481400      0.647047520       0.00000000       1293.28162      -1.57031584    
   5.00000000       0.00000000       0.00000000       1293.28162      -1.57031584    
   5.00000000       0.00000000      -1.00000000       1293.28162      -1.57031584    
   4.33012676       2.50000000      -10.0000000       673.547485      -1.57017338    
   4.33012676       2.50000000      -9.00000000       673.547485      -1.57017338    
   4.57987785       1.89704800      -9.00000000       673.547485      -1.57017338    
   4.57987785       1.89704800      -10.0000000       673.547485      -1.57017338    
   4.33012676       2.50000000      -9.00000000       845.750916      -1.57025218    
   4.33012676       2.50000000      -8.00000000       845.750916      -1.57025218    
   4.57987785       1.89704800      -8.00000000       845.750916      -1.57025218    
   4.57987785       1.89704800      -9.00000000       845.750916      -1.57025218    
   4.33012676       2.50000000      -8.00000000       943.415405      -1.57028246    
   4.33012676       2.50000000      -7.00000000       943.415405      -1.57028246    
   4.57987785       1.89704800      -7.00000000       943.415405      -1.57028246    
   4.57987785       1.89704800      -8.00000000       943.415405      -1.57028246    
   4.33012676       2.50000000      -7.00000000       1009.55157      -1.57029819    
   4.33012676       2.50000000      -6.00000000       1009.55157      -1.57029819    
   4.57987785       1.89704800      -6.00000000       1009.55157      -1.57029819    
   4.57987785       1.89704800      -7.00000000       1009.55157      -1.57029819    
   4.33012676       2.50000000      -6.00000000       1057.18115      -1.57030725    
   4.33012676       2.50000000      -5.00000000       1057.18115      -1.57030725    
   4.57987785       1.89704800      -5.00000000       1057.18115      -1.57030725    
   4.57987785       1.89704800      -6.00000000       1057.18115      -1.57030725    
   4.33012676       2.50000000      -5.00000000       1092.72083      -1.57031250    
   4.33012676       2.50000000      -4.00000000       1092.72083      -1.57031250    
   4.57987785       1.89704800      -4.00000000       1092.72083      -1.57031250    
   4.57987785       1.89704800      -5.00000000       1092.72083      -1.57031250    
   4.33012676       2.50000000      -4.00000000       1119.55042      -1.57031548    
   4.33012676       2.50000000      -3.00000000       1119.55042      -1.57031548    
   4.57987785       1.89704800      -3.00000000       1119.55042      -1.57031548    
   4.57987785       1.89704800      -4.00000000       1119.55042      -1.57031548    
   4.33012676       2.50000000      -3.00000000       1139.81799      -1.57031679    
   4.33012676       2.50000000      -2.00000000       1139.81799      -1.57031679    
   4.57987785       1.89704800      -2.00000000       1139.81799      -1.57031679    
   4.57987785       1.89704800      -3.00000000       1139.81799      -1.57031679    
   4.33012676       2.50000000      -2.00000000       1155.18701      -1.57031703    
   4.33012676       2.50000000      -1.00000000       1155.18701      -1.57031703    
   4.57987785       1.89704800      -1.00000000       1155.18701      -1.57031703    
   4.57987785       1.89704800      -2.00000000       1155.18701      -1.57031703    
   4.33012676       2.50000000      -1.00000000       1166.57898      -1.57031679    
   4.33012676       2.50000000       0.00000000       1166.57898      -1.57031679    
   4.57987785       1.89704800       0.00000000       1166.57898      -1.57031679    
   4.57987785       1.89704800      -1.00000000       1166.57898      -1.57031679    
   4.57987785       1.89704800      -10.0000000       706.039551      -1.57017028    
   4.57987785       1.89704800      -9.00000000       706.039551      -1.57017028    
   4.82962894       1.29409504      -9.00000000       706.039551      -1.57017028    
   4.82962894       1.29409504      -10.0000000       706.039551      -1.57017028    
   4.57987785       1.89704800      -9.00000000       887.200134      -1.57025003    
   4.57987785       1.89704800      -8.00000000       887.200134      -1.57025003    
   4.82962894       1.29409504      -8.00000000       887.200134      -1.57025003    
   4.82962894       1.29409504      -9.00000000       887.200134      -1.57025003    
   4.57987785       1.89704800      -8.00000000       990.050415      -1.57028055    
   4.57987785       1.89704800      -7.00000000       990.050415      -1.57028055    
   4.82962894       1.29409504      -7.00000000       990.050415      -1.57028055    
   4.82962894       1.29409504      -8.00000000       990.050415      -1.57028055    
   4.57987785       1.89704800      -7.00000000       1059.69714      -1.57029653    
   4.57987785       1.89704800      -6.00000000       1059.69714      -1.57029653    
   4.82962894       1.29409504      -6.00000000       1059.69714      -1.57029653    
   4.82962894       1.29409504      -7.00000000       1059.69714      -1.57029653    
   4.57987785       1.89704800      -6.00000000       1109.86292      -1.57030571    
   4.57987785       1.89704800      -5.00000000       1109.86292      -1.57030571    
   4.82962894       1.29409504      -5.00000000       1109.86292      -1.57030571    
   4.82962894       1.29409504      -6.00000000       1109.86292      -1.57030571    
   4.57987785       1.89704800      -5.00000000       1147.28931      -1.57031095    
   4.57987785       1.89704800      -4.00000000       1147.28931      -1.57031095    
   4.82962894       1.29409504      -4.00000000       1147.28931      -1.57031095    
   4.82962894       1.29409504      -5.00000000       1147.28931      -1.57031095    
   4.57987785       1.89704800      -4.00000000       1175.54590      -1.57031405    
   4.57987785       1.89704800      -3.00000000       1175.54590      -1.57031405    
   4.82962894       1.29409504      -3.00000000       1175.54590      -1.57031405    
   4.82962894       1.29409504      -4.00000000       1175.54590      -1.57031405    
   4.57987785       1.89704800      -3.00000000       1196.89062      -1.57031524    
   4.57987785       1.89704800      -2.00000000       1196.89062      -1.57031524    
   4.82962894       1.29409504      -2.00000000       1196.89062      -1.57031524    
   4.82962894       1.29409504      -3.00000000       1196.89062      -1.57031524    
   4.57987785       1.89704800      -2.00000000       1213.07666      -1.57031572    
   4.57987785       1.89704800      -1.00000000       1213.07666      -1.57031572    
   4.82962894       1.29409504      -1.00000000       1213.07666      -1.57031572    
   4.82962894       1.29409504      -2.00000000       1213.07666      -1.57031572    
   4.57987785       1.89704800      -1.00000000       1225.10962      -1.57031536    
   4.57987785       1.89704800       0.00000000       1225.10962      -1.57031536    
   4.82962894       1.29409504       0.00000000       1225.10962      -1.57031536    
   4.82962894       1.29409504      -1.00000000       1225.10962      -1.57031536    
   3.53553391       3.53553391      -10.0000000       566.495239      -1.57017493    
   3.53553391       3.53553391      -9.00000000       566.495239      -1.57017493    
   3.93283010       3.01776695      -9.00000000       566.495239      -1.57017493    
   3.93283010       3.01776695      -10.0000000       566.495239      -1.57017493    
   3.53553391       3.53553391      -9.00000000       711.090881      -1.57025337    
   3.53553391       3.53553391      -8.00000000       711.090881      -1.57025337    
   3.93283010       3.01776695      -8.00000000       711.090881      -1.57025337    
   3.93283010       3.01776695      -9.00000000       711.090881      -1.57025337    
   3.53553391       3.53553391      -8.00000000       793.059509      -1.57028341    
   3.53553391       3.53553391      -7.00000000       793.059509      -1.57028341    
   3.93283010       3.01776695      -7.00000000       793.059509      -1.57028341    
   3.93283010       3.01776695      -8.00000000       793.059509      -1.57028341    
   3.53553391       3.53553391      -7.00000000       848.566284      -1.57029903    
   3.53553391       3.53553391      -6.00000000       848.566284      -1.57029903    
   3.93283010       3.01776695      -6.00000000       848.566284      -1.57029903    
   3.93283010       3.01776695      -7.00000000       848.566284      -1.57029903    
   3.53553391       3.53553391      -6.00000000       888.540649      -1.57030797    
   3.53553391       3.53553391      -5.00000000       888.540649      -1.57030797    
   3.93283010       3.01776695      -5.00000000       888.540649      -1.57030797    
   3.93283010       3.01776695      -6.00000000       888.540649      -1.57030797    
   3.53553391       3.53553391      -5.00000000       918.367126      -1.57031322    
   3.53553391       3.53553391      -4.00000000       918.367126      -1.57031322    
   3.93283010       3.01776695      -4.00000000       918.367126      -1.57031322    
   3.93283010       3.01776695      -5.00000000       918.367126      -1.57031322    
   3.53553391       3.53553391      -4.00000000       940.885620      -1.57031608    
   3.53553391       3.53553391      -3.00000000       940.885620      -1.57031608    
   3.93283010       3.01776695      -3.00000000       940.885620      -1.57031608    
   3.93283010       3.01776695      -4.00000000       940.885620      -1.57031608    
   3.53553391       3.53553391      -3.00000000       957.894287      -1.57031739    
   3.53553391       3.53553391      -2.00000000       957.894287      -1.57031739    
   3.93283010       3.01776695      -2.00000000       957.894287      -1.57031739    
   3.93283010       3.01776695      -3.00000000       957.894287      -1.57031739    
   3.53553391       3.53553391      -2.00000000       970.792664      -1.57031775    
   3.53553391       3.53553391      -1.00000000       970.792664      -1.57031775    
   3.93283010       3.01776695      -1.00000000       970.792664      -1.57031775    
   3.93283010       3.01776695      -2.00000000       970.792664      -1.57031775    
   3.53553391       3.53553391      -1.00000000       980.339600      -1.57031739    
   3.53553391       3.53553391       0.00000000       980.339600      -1.57031739    
   3.93283010       3.01776695       0.00000000       980.339600      -1.57031739    
   3.93283010       3.01776695      -1.00000000       980.339600      -1.57031739    
   3.93283010       3.01776695      -10.0000000       618.182007      -1.57016897    
   3.93283010       3.01776695      -9.00000000       618.182007      -1.57016897    
   4.33012676       2.50000000      -9.00000000       618.182007      -1.57016897    
   4.33012676       2.50000000      -10.0000000       618.182007      -1.57016897    
   3.93283010       3.01776695      -9.00000000       777.027466      -1.57024920    
   3.93283010       3.01776695      -8.00000000       777.027466      -1.57024920    
   4.33012676       2.50000000      -8.00000000       777.027466      -1.57024920    
   4.33012676       2.50000000      -9.00000000       777.027466      -1.57024920    
   3.93283010       3.01776695      -8.00000000       867.244995      -1.57027996    
   3.93283010       3.01776695      -7.00000000       867.244995      -1.57027996    
   4.33012676       2.50000000      -7.00000000       867.244995      -1.57027996    
   4.33012676       2.50000000      -8.00000000       867.244995      -1.57027996    
   3.93283010       3.01776695      -7.00000000       928.337524      -1.57029581    
   3.93283010       3.01776695      -6.00000000       928.337524      -1.57029581    
   4.33012676       2.50000000      -6.00000000       928.337524      -1.57029581    
   4.33012676       2.50000000      -7.00000000       928.337524      -1.57029581    
   3.93283010       3.01776695      -6.00000000       972.344116      -1.57030499    
   3.93283010       3.01776695      -5.00000000       972.344116      -1.57030499    
   4.33012676       2.50000000      -5.00000000       972.344116      -1.57030499    
   4.33012676       2.50000000      -6.00000000       972.344116      -1.57030499    
   3.93283010       3.01776695      -5.00000000       1005.17383      -1.57031035    
   3.93283010       3.01776695      -4.00000000       1005.17383      -1.57031035    
   4.33012676       2.50000000      -4.00000000       1005.17383      -1.57031035    
   4.33012676       2.50000000      -5.00000000       1005.17383      -1.57031035    
   3.93283010       3.01776695      -4.00000000       1029.95837      -1.57031333    
   3.93283010       3.01776695      -3.00000000       1029.95837      -1.57031333    
   4.33012676       2.50000000      -3.00000000       1029.95837      -1.57031333    
   4.33012676       2.50000000      -4.00000000       1029.95837      -1.57031333    
   3.93283010       3.01776695      -3.00000000       1048.68359      -1.57031476    
   3.93283010       3.01776695      -2.00000000       1048.68359      -1.57031476    
   4.33012676       2.50000000      -2.00000000       1048.68359      -1.57031476    
   4.33012676       2.50000000      -3.00000000       1048.68359      -1.57031476    
   3.93283010       3.01776695      -2.00000000       1062.88074      -1.57031512    
   3.93283010       3.01776695      -1.00000000       1062.88074      -1.57031512    
   4.33012676       2.50000000      -1.00000000       1062.88074      -1.57031512    
   4.33012676       2.50000000      -2.00000000       1062.88074      -1.57031512    
   3.93283010       3.01776695      -1.00000000       1073.45068      -1.57031476    
   3.93283010       3.01776695       0.00000000       1073.45068      -1.57031476    
   4.33012676       2.50000000       0.00000000       1073.45068      -1.57031476    
   4.33012676       2.50000000      -1.00000000       1073.45068      -1.57031476    
   2.50000000       4.33012676      -10.0000000       420.838470      -1.57017708    
   2.50000000       4.33012676      -9.00000000       420.838470      -1.57017708    
   3.01776695       3.93283010      -9.00000000       420.838470      -1.57017708    
   3.01776695       3.93283010      -10.0000000       420.838470      -1.57017708    
   2.50000000       4.33012676      -9.00000000       527.971802      -1.57025480    
   2.50000000       4.33012676      -8.00000000       527.971802      -1.57025480    
   3.01776695       3.93283010      -8.00000000       527.971802      -1.57025480    
   3.01776695       3.93283010      -9.00000000       527.971802      -1.57025480    
   2.50000000       4.33012676      -8.00000000       588.658020      -1.57028472    
   2.50000000       4.33012676      -7.00000000       588.658020      -1.57028472    
   3.01776695       3.93283010      -7.00000000       588.658020      -1.57028472    
   3.01776695       3.93283010      -8.00000000       588.658020      -1.57028472    
   2.50000000       4.33012676      -7.00000000       629.753723      -1.57030034    
   2.50000000       4.33012676      -6.00000000       629.753723      -1.57030034    
   3.01776695       3.93283010      -6.00000000       629.753723      -1.57030034    
   3.01776695       3.93283010      -7.00000000       629.753723      -1.57030034    
   2.50000000       4.33012676      -6.00000000       659.345276      -1.57030916    
   2.50000000       4.33012676      -5.00000000       659.345276      -1.57030916    
   3.01776695       3.93283010      -5.00000000       659.345276      -1.57030916    
   3.01776695       3.93283010      -6.00000000       659.345276      -1.57030916    
   2.50000000       4.33012676      -5.00000000       681.428406      -1.57031429    
   2.50000000       4.33012676      -4.00000000       681.428406      -1.57031429    
   3.01776695       3.93283010      -4.00000000       681.428406      -1.57031429    
   3.01776695       3.93283010      -5.00000000       681.428406      -1.57031429    
   2.50000000       4.33012676      -4.00000000       698.100037      -1.57031727    
   2.50000000       4.33012676      -3.00000000       698.100037      -1.57031727    
   3.01776695       3.93283010      -3.00000000       698.100037      -1.57031727    
   3.01776695       3.93283010      -4.00000000       698.100037      -1.57031727    
   2.50000000       4.33012676      -3.00000000       710.691162      -1.57031858    
   2.50000000       4.33012676      -2.00000000       710.691162      -1.57031858    
   3.01776695       3.93283010      -2.00000000       710.691162      -1.57031858    
   3.01776695       3.93283010      -3.00000000       710.691162      -1.57031858    
   2.50000000       4.33012676      -2.00000000       720.239746      -1.57031894    
   2.50000000       4.33012676      -1.00000000       720.239746      -1.57031894    
   3.01776695       3.93283010      -1.00000000       720.239746      -1.57031894    
   3.01776695       3.93283010      -2.00000000       720.239746      -1.57031894    
   2.50000000       4.33012676      -1.00000000       727.293274      -1.57031858    
   2.50000000       4.33012676       0.00000000       727.293274      -1.57031858    
   3.01776695       3.93283010       0.00000000       727.293274      -1.57031858    
   3.01776695       3.93283010      -1.00000000       727.293274      -1.57031858    
   3.01776695       3.93283010      -10.0000000       488.197235      -1.57016730    
   3.01776695       3.93283010      -9.00000000       488.197235      -1.57016730    
   3.53553391       3.53553391      -9.00000000       488.197235      -1.57016730    
   3.53553391       3.53553391      -10.0000000       488.197235      -1.57016730    
   3.01776695       3.93283010      -9.00000000       613.901672      -1.57024801    
   3.01776695       3.93283010      -8.00000000       613.901672      -1.57024801    
   3.53553391       3.53553391      -8.00000000       613.901672      -1.57024801    
   3.53553391       3.53553391      -9.00000000       613.901672      -1.57024801    
   3.01776695       3.93283010      -8.00000000       685.339355      -1.57027864    
   3.01776695       3.93283010      -7.00000000       685.339355      -1.57027864    
   3.53553391       3.53553391      -7.00000000       685.339355      -1.57027864    
   3.53553391       3.53553391      -8.00000000       685.339355      -1.57027864    
   3.01776695       3.93283010      -7.00000000       733.712891      -1.57029498    
   3.01776695       3.93283010      -6.00000000       733.712891      -1.57029498    
   3.53553391       3.53553391      -6.00000000       733.712891      -1.57029498    
   3.53553391       3.53553391      -7.00000000       733.712891      -1.57029498    
   3.01776695       3.93283010      -6.00000000       768.560730      -1.57030404    
   3.01776695       3.93283010      -5.00000000       768.560730      -1.57030404    
   3.53553391       3.53553391      -5.00000000       768.560730      -1.57030404    
   3.53553391       3.53553391      -6.00000000       768.560730      -1.57030404    
   3.01776695       3.93283010      -5.00000000       794.556030      -1.57030952    
   3.01776695       3.93283010      -4.00000000       794.556030      -1.57030952    
   3.53553391       3.53553391      -4.00000000       794.556030      -1.57030952    
   3.53553391       3.53553391      -5.00000000       794.556030      -1.57030952    
   3.01776695       3.93283010      -4.00000000       814.182922      -1.57031238    
   3.01776695       3.93283010      -3.00000000       814.182922      -1.57031238    
   3.53553391       3.53553391      -3.00000000       814.182922      -1.57031238    
   3.53553391       3.53553391      -4.00000000       814.182922      -1.57031238    
   3.01776695       3.93283010      -3.00000000       829.011169      -1.57031405    
   3.01776695       3.93283010      -2.00000000       829.011169      -1.57031405    
   3.53553391       3.53553391      -2.00000000       829.011169      -1.57031405    
   3.53553391       3.53553391      -3.00000000       829.011169      -1.57031405    
   3.01776695       3.93283010      -2.00000000       840.253845      -1.57031429    
   3.01776695       3.93283010      -1.00000000       840.253845      -1.57031429    
   3.53553391       3.53553391      -1.00000000       840.253845      -1.57031429    
   3.53553391       3.53553391      -2.00000000       840.253845      -1.57031429    
   3.01776695       3.93283010      -1.00000000       848.635925      -1.57031405    
   3.01776695       3.93283010       0.00000000       848.635925      -1.57031405    
   3.53553391       3.53553391       0.00000000       848.635925      -1.57031405    
   3.53553391       3.53553391      -1.00000000       848.635925      -1.57031405    
   1.29409504       4.82962894      -10.0000000       246.500702      -1.57018197    
   1.29409504       4.82962894      -9.00000000       246.500702      -1.57018197    
   1.89704800       4.57987785      -9.00000000       246.500702      -1.57018197    
   1.89704800       4.57987785      -10.0000000       246.500702      -1.57018197    
   1.29409504       4.82962894      -9.00000000       308.872284      -1.57025850    
   1.29409504       4.82962894      -8.00000000       308.872284      -1.57025850    
   1.89704800       4.57987785      -8.00000000       308.872284      -1.57025850    
   1.89704800       4.57987785      -9.00000000       308.872284      -1.57025850    
   1.29409504       4.82962894      -8.00000000       344.139801      -1.57028782    
   1.29409504       4.82962894      -7.00000000       344.139801      -1.57028782    
   1.89704800       4.57987785      -7.00000000       344.139801      -1.57028782    
   1.89704800       4.57987785      -8.00000000       344.139801      -1.57028782    
   1.29409504       4.82962894      -7.00000000       368.023285      -1.57030296    
   1.29409504       4.82962894      -6.00000000       368.023285      -1.57030296    
   1.89704800       4.57987785      -6.00000000       368.023285      -1.57030296    
   1.89704800       4.57987785      -7.00000000       368.023285      -1.57030296    
   1.29409504       4.82962894      -6.00000000       385.217590      -1.57031202    
   1.29409504       4.82962894      -5.00000000       385.217590      -1.57031202    
   1.89704800       4.57987785      -5.00000000       385.217590      -1.57031202    
   1.89704800       4.57987785      -6.00000000       385.217590      -1.57031202    
   1.29409504       4.82962894      -5.00000000       398.051453      -1.57031703    
   1.29409504       4.82962894      -4.00000000       398.051453      -1.57031703    
   1.89704800       4.57987785      -4.00000000       398.051453      -1.57031703    
   1.89704800       4.57987785      -5.00000000       398.051453      -1.57031703    
   1.29409504       4.82962894      -4.00000000       407.740112      -1.57031977    
   1.29409504       4.82962894      -3.00000000       407.740112      -1.57031977    
   1.89704800       4.57987785      -3.00000000       407.740112      -1.57031977    