 VARIABLES="X" "Y" "Z" "abs(p) (Pa)" "angle(p) (rad)"
ZONE N=   1080,E =     600, F=FEPOINT, ET=QUADRILATERAL
   4.82962894       1.29409504      -10.0000000       5030.19043     -0.146373704    
   4.82962894       1.29409504      -9.00000000       5030.19043     -0.146373704    
   4.91481400      0.647047520      -9.00000000       5030.19043     -0.146373704    
   4.91481400      0.647047520      -10.0000000       5030.19043     -0.146373704    
   4.82962894       1.29409504      -9.00000000       6659.26367     -0.176487476    
   4.82962894       1.29409504      -8.00000000       6659.26367     -0.176487476    
   4.91481400      0.647047520      -8.00000000       6659.26367     -0.176487476    
   4.91481400      0.647047520      -9.00000000       6659.26367     -0.176487476    
   4.82962894       1.29409504      -8.00000000       8863.17871     -0.396703839    
   4.82962894       1.29409504      -7.00000000       8863.17871     -0.396703839    
   4.91481400      0.647047520      -7.00000000       8863.17871     -0.396703839    
   4.91481400      0.647047520      -8.00000000       8863.17871     -0.396703839    
   4.82962894       1.29409504      -7.00000000       11932.8613     -0.574944854    
   4.82962894       1.29409504      -6.00000000       11932.8613     -0.574944854    
   4.91481400      0.647047520      -6.00000000       11932.8613     -0.574944854    
   4.91481400      0.647047520      -7.00000000       11932.8613     -0.574944854    
   4.82962894       1.29409504      -6.00000000       15785.0742     -0.691002667    
   4.82962894       1.29409504      -5.00000000       15785.0742     -0.691002667    
   4.91481400      0.647047520      -5.00000000       15785.0742     -0.691002667    
   4.91481400      0.647047520      -6.00000000       15785.0742     -0.691002667    
   4.82962894       1.29409504      -5.00000000       20305.6113     -0.760797322    
   4.82962894       1.29409504      -4.00000000       20305.6113     -0.760797322    
   4.91481400      0.647047520      -4.00000000       20305.6113     -0.760797322    
   4.91481400      0.647047520      -5.00000000       20305.6113     -0.760797322    
   4.82962894       1.29409504      -4.00000000       25452.1895     -0.800035119    
   4.82962894       1.29409504      -3.00000000       25452.1895     -0.800035119    
   4.91481400      0.647047520      -3.00000000       25452.1895     -0.800035119    
   4.91481400      0.647047520      -4.00000000       25452.1895     -0.800035119    
   4.82962894       1.29409504      -3.00000000       31262.1934     -0.819483459    
   4.82962894       1.29409504      -2.00000000       31262.1934     -0.819483459    
   4.91481400      0.647047520      -2.00000000       31262.1934     -0.819483459    
   4.91481400      0.647047520      -3.00000000       31262.1934     -0.819483459    
   4.82962894       1.29409504      -2.00000000       37848.1484     -0.826159418    
   4.82962894       1.29409504      -1.00000000       37848.1484     -0.826159418    
   4.91481400      0.647047520      -1.00000000       37848.1484     -0.826159418    
   4.91481400      0.647047520      -2.00000000       37848.1484     -0.826159418    
   4.82962894       1.29409504      -1.00000000       45408.1680     -0.825575590    
   4.82962894       1.29409504       0.00000000       45408.1680     -0.825575590    
   4.91481400      0.647047520       0.00000000       45408.1680     -0.825575590    
   4.91481400      0.647047520      -1.00000000       45408.1680     -0.825575590    
   4.91481400      0.647047520      -10.0000000       5115.49268     -0.148190364    
   4.91481400      0.647047520      -9.00000000       5115.49268     -0.148190364    
   5.00000000       0.00000000      -9.00000000       5115.49268     -0.148190364    
   5.00000000       0.00000000      -10.0000000       5115.49268     -0.148190364    
   4.91481400      0.647047520      -9.00000000       6770.94189     -0.177247033    
   4.91481400      0.647047520      -8.00000000       6770.94189     -0.177247033    
   5.00000000       0.00000000      -8.00000000       6770.94189     -0.177247033    
   5.00000000       0.00000000      -9.00000000       6770.94189     -0.177247033    
   4.91481400      0.647047520      -8.00000000       9010.48145     -0.396682680    
   4.91481400      0.647047520      -7.00000000       9010.48145     -0.396682680    
   5.00000000       0.00000000      -7.00000000       9010.48145     -0.396682680    
   5.00000000       0.00000000      -8.00000000       9010.48145     -0.396682680    
   4.91481400      0.647047520      -7.00000000       12128.1777     -0.574553132    
   4.91481400      0.647047520      -6.00000000       12128.1777     -0.574553132    
   5.00000000       0.00000000      -6.00000000       12128.1777     -0.574553132    
   5.00000000       0.00000000      -7.00000000       12128.1777     -0.574553132    
   4.91481400      0.647047520      -6.00000000       16040.3779     -0.690465212    
   4.91481400      0.647047520      -5.00000000       16040.3779     -0.690465212    
   5.00000000       0.00000000      -5.00000000       16040.3779     -0.690465212    
   5.00000000       0.00000000      -6.00000000       16040.3779     -0.690465212    
   4.91481400      0.647047520      -5.00000000       20631.6836     -0.760211706    
   4.91481400      0.647047520      -4.00000000       20631.6836     -0.760211706    
   5.00000000       0.00000000      -4.00000000       20631.6836     -0.760211706    
   5.00000000       0.00000000      -5.00000000       20631.6836     -0.760211706    
   4.91481400      0.647047520      -4.00000000       25859.3145     -0.799433827    
   4.91481400      0.647047520      -3.00000000       25859.3145     -0.799433827    
   5.00000000       0.00000000      -3.00000000       25859.3145     -0.799433827    
   5.00000000       0.00000000      -4.00000000       25859.3145     -0.799433827    
   4.91481400      0.647047520      -3.00000000       31761.5293     -0.818885028    
   4.91481400      0.647047520      -2.00000000       31761.5293     -0.818885028    
   5.00000000       0.00000000      -2.00000000       31761.5293     -0.818885028    
   5.00000000       0.00000000      -3.00000000       31761.5293     -0.818885028    
   4.91481400      0.647047520      -2.00000000       38452.7773     -0.825570285    
   4.91481400      0.647047520      -1.00000000       38452.7773     -0.825570285    
   5.00000000       0.00000000      -1.00000000       38452.7773     -0.825570285    
   5.00000000       0.00000000      -2.00000000       38452.7773     -0.825570285    
   4.91481400      0.647047520      -1.00000000       46134.8750     -0.825005829    
   4.91481400      0.647047520       0.00000000       46134.8750     -0.825005829    
   5.00000000       0.00000000       0.00000000       46134.8750     -0.825005829    
   5.00000000       0.00000000      -1.00000000       46134.8750     -0.825005829    
   4.33012676       2.50000000      -10.0000000       4602.10107     -0.144354478    
   4.33012676       2.50000000      -9.00000000       4602.10107     -0.144354478    
   4.57987785       1.89704800      -9.00000000       4602.10107     -0.144354478    
   4.57987785       1.89704800      -10.0000000       4602.10107     -0.144354478    
   4.33012676       2.50000000      -9.00000000       6093.77881     -0.175644159    
   4.33012676       2.50000000      -8.00000000       6093.77881     -0.175644159    
   4.57987785       1.89704800      -8.00000000       6093.77881     -0.175644159    
   4.57987785       1.89704800      -9.00000000       6093.77881     -0.175644159    
   4.33012676       2.50000000      -8.00000000       8111.86963     -0.396727294    
   4.33012676       2.50000000      -7.00000000       8111.86963     -0.396727294    
   4.57987785       1.89704800      -7.00000000       8111.86963     -0.396727294    
   4.57987785       1.89704800      -8.00000000       8111.86963     -0.396727294    
   4.33012676       2.50000000      -7.00000000       10924.3350     -0.575380325    
   4.33012676       2.50000000      -6.00000000       10924.3350     -0.575380325    
   4.57987785       1.89704800      -6.00000000       10924.3350     -0.575380325    
   4.57987785       1.89704800      -7.00000000       10924.3350     -0.575380325    
   4.33012676       2.50000000      -6.00000000       14454.0332     -0.691599667    
   4.33012676       2.50000000      -5.00000000       14454.0332     -0.691599667    
   4.57987785       1.89704800      -5.00000000       14454.0332     -0.691599667    
   4.57987785       1.89704800      -6.00000000       14454.0332     -0.691599667    
   4.33012676       2.50000000      -5.00000000       18595.7500     -0.761447668    
   4.33012676       2.50000000      -4.00000000       18595.7500     -0.761447668    
   4.57987785       1.89704800      -4.00000000       18595.7500     -0.761447668    
   4.57987785       1.89704800      -5.00000000       18595.7500     -0.761447668    
   4.33012676       2.50000000      -4.00000000       23310.5742     -0.800701737    
   4.33012676       2.50000000      -3.00000000       23310.5742     -0.800701737    
   4.57987785       1.89704800      -3.00000000       23310.5742     -0.800701737    
   4.57987785       1.89704800      -4.00000000       23310.5742     -0.800701737    
   4.33012676       2.50000000      -3.00000000       28632.3770     -0.820147574    
   4.33012676       2.50000000      -2.00000000       28632.3770     -0.820147574    
   4.57987785       1.89704800      -2.00000000       28632.3770     -0.820147574    
   4.57987785       1.89704800      -3.00000000       28632.3770     -0.820147574    
   4.33012676       2.50000000      -2.00000000       34664.2500     -0.826813757    
   4.33012676       2.50000000      -1.00000000       34664.2500     -0.826813757    
   4.57987785       1.89704800      -1.00000000       34664.2500     -0.826813757    
   4.57987785       1.89704800      -2.00000000       34664.2500     -0.826813757    
   4.33012676       2.50000000      -1.00000000       41586.9766     -0.826207936    
   4.33012676       2.50000000       0.00000000       41586.9766     -0.826207936    
   4.57987785       1.89704800       0.00000000       41586.9766     -0.826207936    
   4.57987785       1.89704800      -1.00000000       41586.9766     -0.826207936    
   4.57987785       1.89704800      -10.0000000       4852.20264     -0.150072366    
   4.57987785       1.89704800      -9.00000000       4852.20264     -0.150072366    
   4.82962894       1.29409504      -9.00000000       4852.20264     -0.150072366    
   4.82962894       1.29409504      -10.0000000       4852.20264     -0.150072366    
   4.57987785       1.89704800      -9.00000000       6421.19043     -0.178034022    
   4.57987785       1.89704800      -8.00000000       6421.19043     -0.178034022    
   4.82962894       1.29409504      -8.00000000       6421.19043     -0.178034022    
   4.82962894       1.29409504      -9.00000000       6421.19043     -0.178034022    
   4.57987785       1.89704800      -8.00000000       8543.73438     -0.396660328    
   4.57987785       1.89704800      -7.00000000       8543.73438     -0.396660328    
   4.82962894       1.29409504      -7.00000000       8543.73438     -0.396660328    
   4.82962894       1.29409504      -8.00000000       8543.73438     -0.396660328    
   4.57987785       1.89704800      -7.00000000       11496.9834     -0.574146807    
   4.57987785       1.89704800      -6.00000000       11496.9834     -0.574146807    
   4.82962894       1.29409504      -6.00000000       11496.9834     -0.574146807    
   4.82962894       1.29409504      -7.00000000       11496.9834     -0.574146807    
   4.57987785       1.89704800      -6.00000000       15202.5645     -0.689906955    
   4.57987785       1.89704800      -5.00000000       15202.5645     -0.689906955    
   4.82962894       1.29409504      -5.00000000       15202.5645     -0.689906955    
   4.82962894       1.29409504      -6.00000000       15202.5645     -0.689906955    
   4.57987785       1.89704800      -5.00000000       19551.7539     -0.759603083    
   4.57987785       1.89704800      -4.00000000       19551.7539     -0.759603083    
   4.82962894       1.29409504      -4.00000000       19551.7539     -0.759603083    
   4.82962894       1.29409504      -5.00000000       19551.7539     -0.759603083    
   4.57987785       1.89704800      -4.00000000       24504.1602     -0.798810244    
   4.57987785       1.89704800      -3.00000000       24504.1602     -0.798810244    
   4.82962894       1.29409504      -3.00000000       24504.1602     -0.798810244    
   4.82962894       1.29409504      -4.00000000       24504.1602     -0.798810244    
   4.57987785       1.89704800      -3.00000000       30096.4121     -0.818263054    
   4.57987785       1.89704800      -2.00000000       30096.4121     -0.818263054    
   4.82962894       1.29409504      -2.00000000       30096.4121     -0.818263054    
   4.82962894       1.29409504      -3.00000000       30096.4121     -0.818263054    
   4.57987785       1.89704800      -2.00000000       36436.9141     -0.824958146    
   4.57987785       1.89704800      -1.00000000       36436.9141     -0.824958146    
   4.82962894       1.29409504      -1.00000000       36436.9141     -0.824958146    
   4.82962894       1.29409504      -2.00000000       36436.9141     -0.824958146    
   4.57987785       1.89704800      -1.00000000       43717.6016     -0.824413180    
   4.57987785       1.89704800       0.00000000       43717.6016     -0.824413180    
   4.82962894       1.29409504       0.00000000       43717.6016     -0.824413180    
   4.82962894       1.29409504      -1.00000000       43717.6016     -0.824413180    
   3.53553391       3.53553391      -10.0000000       3860.41504     -0.141722590    
   3.53553391       3.53553391      -9.00000000       3860.41504     -0.141722590    
   3.93283010       3.01776695      -9.00000000       3860.41504     -0.141722590    
   3.93283010       3.01776695      -10.0000000       3860.41504     -0.141722590    
   3.53553391       3.53553391      -9.00000000       5113.01221     -0.174545869    
   3.53553391       3.53553391      -8.00000000       5113.01221     -0.174545869    
   3.93283010       3.01776695      -8.00000000       5113.01221     -0.174545869    
   3.93283010       3.01776695      -9.00000000       5113.01221     -0.174545869    
   3.53553391       3.53553391      -8.00000000       6807.75000     -0.396758229    
   3.53553391       3.53553391      -7.00000000       6807.75000     -0.396758229    
   3.93283010       3.01776695      -7.00000000       6807.75000     -0.396758229    
   3.93283010       3.01776695      -8.00000000       6807.75000     -0.396758229    
   3.53553391       3.53553391      -7.00000000       9171.34473     -0.575946212    
   3.53553391       3.53553391      -6.00000000       9171.34473     -0.575946212    
   3.93283010       3.01776695      -6.00000000       9171.34473     -0.575946212    
   3.93283010       3.01776695      -7.00000000       9171.34473     -0.575946212    
   3.53553391       3.53553391      -6.00000000       12138.0039     -0.692374825    
   3.53553391       3.53553391      -5.00000000       12138.0039     -0.692374825    
   3.93283010       3.01776695      -5.00000000       12138.0039     -0.692374825    
   3.93283010       3.01776695      -6.00000000       12138.0039     -0.692374825    
   3.53553391       3.53553391      -5.00000000       15618.6289     -0.762293279    
   3.53553391       3.53553391      -4.00000000       15618.6289     -0.762293279    
   3.93283010       3.01776695      -4.00000000       15618.6289     -0.762293279    
   3.93283010       3.01776695      -5.00000000       15618.6289     -0.762293279    
   3.53553391       3.53553391      -4.00000000       19580.3711     -0.801568866    
   3.53553391       3.53553391      -3.00000000       19580.3711     -0.801568866    
   3.93283010       3.01776695      -3.00000000       19580.3711     -0.801568866    
   3.93283010       3.01776695      -4.00000000       19580.3711     -0.801568866    
   3.53553391       3.53553391      -3.00000000       24051.3320     -0.821011126    
   3.53553391       3.53553391      -2.00000000       24051.3320     -0.821011126    
   3.93283010       3.01776695      -2.00000000       24051.3320     -0.821011126    
   3.93283010       3.01776695      -3.00000000       24051.3320     -0.821011126    
   3.53553391       3.53553391      -2.00000000       29118.0723     -0.827663720    
   3.53553391       3.53553391      -1.00000000       29118.0723     -0.827663720    
   3.93283010       3.01776695      -1.00000000       29118.0723     -0.827663720    
   3.93283010       3.01776695      -2.00000000       29118.0723     -0.827663720    
   3.53553391       3.53553391      -1.00000000       34931.7422     -0.827030122    
   3.53553391       3.53553391       0.00000000       34931.7422     -0.827030122    
   3.93283010       3.01776695       0.00000000       34931.7422     -0.827030122    
   3.93283010       3.01776695      -1.00000000       34931.7422     -0.827030122    
   3.93283010       3.01776695      -10.0000000       4258.25537     -0.152333856    
   3.93283010       3.01776695      -9.00000000       4258.25537     -0.152333856    
   4.33012676       2.50000000      -9.00000000       4258.25537     -0.152333856    
   4.33012676       2.50000000      -10.0000000       4258.25537     -0.152333856    
   3.93283010       3.01776695      -9.00000000       5633.85645     -0.178979799    
   3.93283010       3.01776695      -8.00000000       5633.85645     -0.178979799    
   4.33012676       2.50000000      -8.00000000       5633.85645     -0.178979799    
   4.33012676       2.50000000      -9.00000000       5633.85645     -0.178979799    
   3.93283010       3.01776695      -8.00000000       7494.74219     -0.396634102    
   3.93283010       3.01776695      -7.00000000       7494.74219     -0.396634102    
   4.33012676       2.50000000      -7.00000000       7494.74219     -0.396634102    
   4.33012676       2.50000000      -8.00000000       7494.74219     -0.396634102    
   3.93283010       3.01776695      -7.00000000       10082.2949     -0.573657155    
   3.93283010       3.01776695      -6.00000000       10082.2949     -0.573657155    
   4.33012676       2.50000000      -6.00000000       10082.2949     -0.573657155    
   4.33012676       2.50000000      -7.00000000       10082.2949     -0.573657155    
   3.93283010       3.01776695      -6.00000000       13328.7295     -0.689235508    
   3.93283010       3.01776695      -5.00000000       13328.7295     -0.689235508    
   4.33012676       2.50000000      -5.00000000       13328.7295     -0.689235508    
   4.33012676       2.50000000      -6.00000000       13328.7295     -0.689235508    
   3.93283010       3.01776695      -5.00000000       17139.4023     -0.758870602    
   3.93283010       3.01776695      -4.00000000       17139.4023     -0.758870602    
   4.33012676       2.50000000      -4.00000000       17139.4023     -0.758870602    
   4.33012676       2.50000000      -5.00000000       17139.4023     -0.758870602    
   3.93283010       3.01776695      -4.00000000       21479.1172     -0.798058212    
   3.93283010       3.01776695      -3.00000000       21479.1172     -0.798058212    
   4.33012676       2.50000000      -3.00000000       21479.1172     -0.798058212    
   4.33012676       2.50000000      -4.00000000       21479.1172     -0.798058212    
   3.93283010       3.01776695      -3.00000000       26380.2734     -0.817513943    
   3.93283010       3.01776695      -2.00000000       26380.2734     -0.817513943    
   4.33012676       2.50000000      -2.00000000       26380.2734     -0.817513943    
   4.33012676       2.50000000      -3.00000000       26380.2734     -0.817513943    
   3.93283010       3.01776695      -2.00000000       31937.9648     -0.824221075    
   3.93283010       3.01776695      -1.00000000       31937.9648     -0.824221075    
   4.33012676       2.50000000      -1.00000000       31937.9648     -0.824221075    
   4.33012676       2.50000000      -2.00000000       31937.9648     -0.824221075    
   3.93283010       3.01776695      -1.00000000       38321.0352     -0.823701024    
   3.93283010       3.01776695       0.00000000       38321.0352     -0.823701024    
   4.33012676       2.50000000       0.00000000       38321.0352     -0.823701024    
   4.33012676       2.50000000      -1.00000000       38321.0352     -0.823701024    
   2.50000000       4.33012676      -10.0000000       2855.69116     -0.137484208    
   2.50000000       4.33012676      -9.00000000       2855.69116     -0.137484208    
   3.01776695       3.93283010      -9.00000000       2855.69116     -0.137484208    
   3.01776695       3.93283010      -10.0000000       2855.69116     -0.137484208    
   2.50000000       4.33012676      -9.00000000       3783.81396     -0.172776669    
   2.50000000       4.33012676      -8.00000000       3783.81396     -0.172776669    
   3.01776695       3.93283010      -8.00000000       3783.81396     -0.172776669    
   3.01776695       3.93283010      -9.00000000       3783.81396     -0.172776669    
   2.50000000       4.33012676      -8.00000000       5039.69336     -0.396807849    
   2.50000000       4.33012676      -7.00000000       5039.69336     -0.396807849    
   3.01776695       3.93283010      -7.00000000       5039.69336     -0.396807849    
   3.01776695       3.93283010      -8.00000000       5039.69336     -0.396807849    
   2.50000000       4.33012676      -7.00000000       6793.34375     -0.576855958    
   2.50000000       4.33012676      -6.00000000       6793.34375     -0.576855958    
   3.01776695       3.93283010      -6.00000000       6793.34375     -0.576855958    
   3.01776695       3.93283010      -7.00000000       6793.34375     -0.576855958    
   2.50000000       4.33012676      -6.00000000       8994.78125     -0.693622291    
   2.50000000       4.33012676      -5.00000000       8994.78125     -0.693622291    
   3.01776695       3.93283010      -5.00000000       8994.78125     -0.693622291    
   3.01776695       3.93283010      -6.00000000       8994.78125     -0.693622291    
   2.50000000       4.33012676      -5.00000000       11577.1436     -0.763650596    
   2.50000000       4.33012676      -4.00000000       11577.1436     -0.763650596    
   3.01776695       3.93283010      -4.00000000       11577.1436     -0.763650596    
   3.01776695       3.93283010      -5.00000000       11577.1436     -0.763650596    
   2.50000000       4.33012676      -4.00000000       14515.8340     -0.802960634    
   2.50000000       4.33012676      -3.00000000       14515.8340     -0.802960634    
   3.01776695       3.93283010      -3.00000000       14515.8340     -0.802960634    
   3.01776695       3.93283010      -4.00000000       14515.8340     -0.802960634    
   2.50000000       4.33012676      -3.00000000       17831.2617     -0.822398007    
   2.50000000       4.33012676      -2.00000000       17831.2617     -0.822398007    
   3.01776695       3.93283010      -2.00000000       17831.2617     -0.822398007    
   3.01776695       3.93283010      -3.00000000       17831.2617     -0.822398007    
   2.50000000       4.33012676      -2.00000000       21587.5781     -0.829028189    
   2.50000000       4.33012676      -1.00000000       21587.5781     -0.829028189    
   3.01776695       3.93283010      -1.00000000       21587.5781     -0.829028189    
   3.01776695       3.93283010      -2.00000000       21587.5781     -0.829028189    
   2.50000000       4.33012676      -1.00000000       25896.0039     -0.828349769    
   2.50000000       4.33012676       0.00000000       25896.0039     -0.828349769    
   3.01776695       3.93283010       0.00000000       25896.0039     -0.828349769    
   3.01776695       3.93283010      -1.00000000       25896.0039     -0.828349769    
   3.01776695       3.93283010      -10.0000000       3374.15698     -0.155587807    
   3.01776695       3.93283010      -9.00000000       3374.15698     -0.155587807    
   3.53553391       3.53553391      -9.00000000       3374.15698     -0.155587807    
   3.53553391       3.53553391      -10.0000000       3374.15698     -0.155587807    
   3.01776695       3.93283010      -9.00000000       4462.58496     -0.180340990    
   3.01776695       3.93283010      -8.00000000       4462.58496     -0.180340990    
   3.53553391       3.53553391      -8.00000000       4462.58496     -0.180340990    
   3.53553391       3.53553391      -9.00000000       4462.58496     -0.180340990    
   3.01776695       3.93283010      -8.00000000       5934.99219     -0.396596521    
   3.01776695       3.93283010      -7.00000000       5934.99219     -0.396596521    
   3.53553391       3.53553391      -7.00000000       5934.99219     -0.396596521    
   3.53553391       3.53553391      -8.00000000       5934.99219     -0.396596521    
   3.01776695       3.93283010      -7.00000000       7980.51465     -0.572952330    
   3.01776695       3.93283010      -6.00000000       7980.51465     -0.572952330    
   3.53553391       3.53553391      -6.00000000       7980.51465     -0.572952330    
   3.53553391       3.53553391      -7.00000000       7980.51465     -0.572952330    
   3.01776695       3.93283010      -6.00000000       10546.5674     -0.688266993    
   3.01776695       3.93283010      -5.00000000       10546.5674     -0.688266993    
   3.53553391       3.53553391      -5.00000000       10546.5674     -0.688266993    
   3.53553391       3.53553391      -6.00000000       10546.5674     -0.688266993    
   3.01776695       3.93283010      -5.00000000       13559.0566     -0.757814765    
   3.01776695       3.93283010      -4.00000000       13559.0566     -0.757814765    
   3.53553391       3.53553391      -4.00000000       13559.0566     -0.757814765    
   3.53553391       3.53553391      -5.00000000       13559.0566     -0.757814765    
   3.01776695       3.93283010      -4.00000000       16990.3164     -0.796974480    
   3.01776695       3.93283010      -3.00000000       16990.3164     -0.796974480    
   3.53553391       3.53553391      -3.00000000       16990.3164     -0.796974480    
   3.53553391       3.53553391      -4.00000000       16990.3164     -0.796974480    
   3.01776695       3.93283010      -3.00000000       20866.3809     -0.816433609    
   3.01776695       3.93283010      -2.00000000       20866.3809     -0.816433609    
   3.53553391       3.53553391      -2.00000000       20866.3809     -0.816433609    
   3.53553391       3.53553391      -3.00000000       20866.3809     -0.816433609    
   3.01776695       3.93283010      -2.00000000       25262.5098     -0.823158145    
   3.01776695       3.93283010      -1.00000000       25262.5098     -0.823158145    
   3.53553391       3.53553391      -1.00000000       25262.5098     -0.823158145    
   3.53553391       3.53553391      -2.00000000       25262.5098     -0.823158145    
   3.01776695       3.93283010      -1.00000000       30312.9941     -0.822672784    
   3.01776695       3.93283010       0.00000000       30312.9941     -0.822672784    
   3.53553391       3.53553391       0.00000000       30312.9941     -0.822672784    
   3.53553391       3.53553391      -1.00000000       30312.9941     -0.822672784    
   1.29409504       4.82962894      -10.0000000       1656.46814     -0.127605230    
   1.29409504       4.82962894      -9.00000000       1656.46814     -0.127605230    
   1.89704800       4.57987785      -9.00000000       1656.46814     -0.127605230    
   1.89704800       4.57987785      -10.0000000       1656.46814     -0.127605230    
   1.29409504       4.82962894      -9.00000000       2196.77783     -0.168659404    
   1.29409504       4.82962894      -8.00000000       2196.77783     -0.168659404    
   1.89704800       4.57987785      -8.00000000       2196.77783     -0.168659404    
   1.89704800       4.57987785      -9.00000000       2196.77783     -0.168659404    
   1.29409504       4.82962894      -8.00000000       2928.18677     -0.396922380    
   1.29409504       4.82962894      -7.00000000       2928.18677     -0.396922380    
   1.89704800       4.57987785      -7.00000000       2928.18677     -0.396922380    
   1.89704800       4.57987785      -8.00000000       2928.18677     -0.396922380    
   1.29409504       4.82962894      -7.00000000       3952.39771     -0.578968048    
   1.29409504       4.82962894      -6.00000000       3952.39771     -0.578968048    
   1.89704800       4.57987785      -6.00000000       3952.39771     -0.578968048    
   1.89704800       4.57987785      -7.00000000       3952.39771     -0.578968048    
   1.29409504       4.82962894      -6.00000000       5238.61816     -0.696510911    
   1.29409504       4.82962894      -5.00000000       5238.61816     -0.696510911    
   1.89704800       4.57987785      -5.00000000       5238.61816     -0.696510911    
   1.89704800       4.57987785      -6.00000000       5238.61816     -0.696510911    
   1.29409504       4.82962894      -5.00000000       6746.73877     -0.766793668    
   1.29409504       4.82962894      -4.00000000       6746.73877     -0.766793668    
   1.89704800       4.57987785      -4.00000000       6746.73877     -0.766793668    
   1.89704800       4.57987785      -5.00000000       6746.73877     -0.766793668    
   1.29409504       4.82962894      -4.00000000       8462.11523     -0.806181252    
   1.29409504       4.82962894      -3.00000000       8462.11523     -0.806181252    
   1.89704800       4.57987785      -3.00000000       8462.11523     -0.806181252    