 VARIABLES="X" "Y" "Z" "abs(p) (Pa)" "angle(p) (rad)"
ZONE N=   1080,E =     600, F=FEPOINT, ET=QUADRILATERAL
   4.82962894       1.29409504      -10.0000000       2791.70752      -1.30342436    
   4.82962894       1.29409504      -9.00000000       2791.70752      -1.30342436    
   4.91481400      0.647047520      -9.00000000       2791.70752      -1.30342436    
   4.91481400      0.647047520      -10.0000000       2791.70752      -1.30342436    
   4.82962894       1.29409504      -9.00000000       3538.04810      -1.31610787    
   4.82962894       1.29409504      -8.00000000       3538.04810      -1.31610787    
   4.91481400      0.647047520      -8.00000000       3538.04810      -1.31610787    
   4.91481400      0.647047520      -9.00000000       3538.04810      -1.31610787    
   4.82962894       1.29409504      -8.00000000       4022.68311      -1.31283152    
   4.82962894       1.29409504      -7.00000000       4022.68311      -1.31283152    
   4.91481400      0.647047520      -7.00000000       4022.68311      -1.31283152    
   4.91481400      0.647047520      -8.00000000       4022.68311      -1.31283152    
   4.82962894       1.29409504      -7.00000000       4414.25488      -1.30454814    
   4.82962894       1.29409504      -6.00000000       4414.25488      -1.30454814    
   4.91481400      0.647047520      -6.00000000       4414.25488      -1.30454814    
   4.91481400      0.647047520      -7.00000000       4414.25488      -1.30454814    
   4.82962894       1.29409504      -6.00000000       4766.67969      -1.29395378    
   4.82962894       1.29409504      -5.00000000       4766.67969      -1.29395378    
   4.91481400      0.647047520      -5.00000000       4766.67969      -1.29395378    
   4.91481400      0.647047520      -6.00000000       4766.67969      -1.29395378    
   4.82962894       1.29409504      -5.00000000       5110.40088      -1.28234649    
   4.82962894       1.29409504      -4.00000000       5110.40088      -1.28234649    
   4.91481400      0.647047520      -4.00000000       5110.40088      -1.28234649    
   4.91481400      0.647047520      -5.00000000       5110.40088      -1.28234649    
   4.82962894       1.29409504      -4.00000000       5468.19385      -1.27065396    
   4.82962894       1.29409504      -3.00000000       5468.19385      -1.27065396    
   4.91481400      0.647047520      -3.00000000       5468.19385      -1.27065396    
   4.91481400      0.647047520      -4.00000000       5468.19385      -1.27065396    
   4.82962894       1.29409504      -3.00000000       5859.94434      -1.25971448    
   4.82962894       1.29409504      -2.00000000       5859.94434      -1.25971448    
   4.91481400      0.647047520      -2.00000000       5859.94434      -1.25971448    
   4.91481400      0.647047520      -3.00000000       5859.94434      -1.25971448    
   4.82962894       1.29409504      -2.00000000       6308.68408      -1.25046802    
   4.82962894       1.29409504      -1.00000000       6308.68408      -1.25046802    
   4.91481400      0.647047520      -1.00000000       6308.68408      -1.25046802    
   4.91481400      0.647047520      -2.00000000       6308.68408      -1.25046802    
   4.82962894       1.29409504      -1.00000000       6848.86572      -1.24430704    
   4.82962894       1.29409504       0.00000000       6848.86572      -1.24430704    
   4.91481400      0.647047520       0.00000000       6848.86572      -1.24430704    
   4.91481400      0.647047520      -1.00000000       6848.86572      -1.24430704    
   4.91481400      0.647047520      -10.0000000       2834.46021      -1.30305624    
   4.91481400      0.647047520      -9.00000000       2834.46021      -1.30305624    
   5.00000000       0.00000000      -9.00000000       2834.46021      -1.30305624    
   5.00000000       0.00000000      -10.0000000       2834.46021      -1.30305624    
   4.91481400      0.647047520      -9.00000000       3592.94165      -1.31582022    
   4.91481400      0.647047520      -8.00000000       3592.94165      -1.31582022    
   5.00000000       0.00000000      -8.00000000       3592.94165      -1.31582022    
   5.00000000       0.00000000      -9.00000000       3592.94165      -1.31582022    
   4.91481400      0.647047520      -8.00000000       4085.61792      -1.31257522    
   4.91481400      0.647047520      -7.00000000       4085.61792      -1.31257522    
   5.00000000       0.00000000      -7.00000000       4085.61792      -1.31257522    
   5.00000000       0.00000000      -8.00000000       4085.61792      -1.31257522    
   4.91481400      0.647047520      -7.00000000       4483.69189      -1.30430639    
   4.91481400      0.647047520      -6.00000000       4483.69189      -1.30430639    
   5.00000000       0.00000000      -6.00000000       4483.69189      -1.30430639    
   5.00000000       0.00000000      -7.00000000       4483.69189      -1.30430639    
   4.91481400      0.647047520      -6.00000000       4841.98584      -1.29372132    
   4.91481400      0.647047520      -5.00000000       4841.98584      -1.29372132    
   5.00000000       0.00000000      -5.00000000       4841.98584      -1.29372132    
   5.00000000       0.00000000      -6.00000000       4841.98584      -1.29372132    
   4.91481400      0.647047520      -5.00000000       5191.42676      -1.28212070    
   4.91481400      0.647047520      -4.00000000       5191.42676      -1.28212070    
   5.00000000       0.00000000      -4.00000000       5191.42676      -1.28212070    
   5.00000000       0.00000000      -5.00000000       5191.42676      -1.28212070    
   4.91481400      0.647047520      -4.00000000       5555.17676      -1.27043474    
   4.91481400      0.647047520      -3.00000000       5555.17676      -1.27043474    
   5.00000000       0.00000000      -3.00000000       5555.17676      -1.27043474    
   5.00000000       0.00000000      -4.00000000       5555.17676      -1.27043474    
   4.91481400      0.647047520      -3.00000000       5953.45459      -1.25950193    
   4.91481400      0.647047520      -2.00000000       5953.45459      -1.25950193    
   5.00000000       0.00000000      -2.00000000       5953.45459      -1.25950193    
   5.00000000       0.00000000      -3.00000000       5953.45459      -1.25950193    
   4.91481400      0.647047520      -2.00000000       6409.66113      -1.25026441    
   4.91481400      0.647047520      -1.00000000       6409.66113      -1.25026441    
   5.00000000       0.00000000      -1.00000000       6409.66113      -1.25026441    
   5.00000000       0.00000000      -2.00000000       6409.66113      -1.25026441    
   4.91481400      0.647047520      -1.00000000       6958.88281      -1.24411702    
   4.91481400      0.647047520       0.00000000       6958.88281      -1.24411702    
   5.00000000       0.00000000       0.00000000       6958.88281      -1.24411702    
   5.00000000       0.00000000      -1.00000000       6958.88281      -1.24411702    
   4.33012676       2.50000000      -10.0000000       2558.70728      -1.30383277    
   4.33012676       2.50000000      -9.00000000       2558.70728      -1.30383277    
   4.57987785       1.89704800      -9.00000000       2558.70728      -1.30383277    
   4.57987785       1.89704800      -10.0000000       2558.70728      -1.30383277    
   4.33012676       2.50000000      -9.00000000       3242.04297      -1.31642556    
   4.33012676       2.50000000      -8.00000000       3242.04297      -1.31642556    
   4.57987785       1.89704800      -8.00000000       3242.04297      -1.31642556    
   4.57987785       1.89704800      -9.00000000       3242.04297      -1.31642556    
   4.33012676       2.50000000      -8.00000000       3685.60938      -1.31311595    
   4.33012676       2.50000000      -7.00000000       3685.60938      -1.31311595    
   4.57987785       1.89704800      -7.00000000       3685.60938      -1.31311595    
   4.57987785       1.89704800      -8.00000000       3685.60938      -1.31311595    
   4.33012676       2.50000000      -7.00000000       4043.99097      -1.30481577    
   4.33012676       2.50000000      -6.00000000       4043.99097      -1.30481577    
   4.57987785       1.89704800      -6.00000000       4043.99097      -1.30481577    
   4.57987785       1.89704800      -7.00000000       4043.99097      -1.30481577    
   4.33012676       2.50000000      -6.00000000       4366.52686      -1.29421139    
   4.33012676       2.50000000      -5.00000000       4366.52686      -1.29421139    
   4.57987785       1.89704800      -5.00000000       4366.52686      -1.29421139    
   4.57987785       1.89704800      -6.00000000       4366.52686      -1.29421139    
   4.33012676       2.50000000      -5.00000000       4681.10449      -1.28259706    
   4.33012676       2.50000000      -4.00000000       4681.10449      -1.28259706    
   4.57987785       1.89704800      -4.00000000       4681.10449      -1.28259706    
   4.57987785       1.89704800      -5.00000000       4681.10449      -1.28259706    
   4.33012676       2.50000000      -4.00000000       5008.56104      -1.27089882    
   4.33012676       2.50000000      -3.00000000       5008.56104      -1.27089882    
   4.57987785       1.89704800      -3.00000000       5008.56104      -1.27089882    
   4.57987785       1.89704800      -4.00000000       5008.56104      -1.27089882    
   4.33012676       2.50000000      -3.00000000       5367.09082      -1.25995028    
   4.33012676       2.50000000      -2.00000000       5367.09082      -1.25995028    
   4.57987785       1.89704800      -2.00000000       5367.09082      -1.25995028    
   4.57987785       1.89704800      -3.00000000       5367.09082      -1.25995028    
   4.33012676       2.50000000      -2.00000000       5777.77979      -1.25069308    
   4.33012676       2.50000000      -1.00000000       5777.77979      -1.25069308    
   4.57987785       1.89704800      -1.00000000       5777.77979      -1.25069308    
   4.57987785       1.89704800      -2.00000000       5777.77979      -1.25069308    
   4.33012676       2.50000000      -1.00000000       6272.11035      -1.24451792    
   4.33012676       2.50000000       0.00000000       6272.11035      -1.24451792    
   4.57987785       1.89704800       0.00000000       6272.11035      -1.24451792    
   4.57987785       1.89704800      -1.00000000       6272.11035      -1.24451792    
   4.57987785       1.89704800      -10.0000000       2684.04980      -1.30267286    
   4.57987785       1.89704800      -9.00000000       2684.04980      -1.30267286    
   4.82962894       1.29409504      -9.00000000       2684.04980      -1.30267286    
   4.82962894       1.29409504      -10.0000000       2684.04980      -1.30267286    
   4.57987785       1.89704800      -9.00000000       3402.97925      -1.31552148    
   4.57987785       1.89704800      -8.00000000       3402.97925      -1.31552148    
   4.82962894       1.29409504      -8.00000000       3402.97925      -1.31552148    
   4.82962894       1.29409504      -9.00000000       3402.97925      -1.31552148    
   4.57987785       1.89704800      -8.00000000       3870.12769      -1.31230855    
   4.57987785       1.89704800      -7.00000000       3870.12769      -1.31230855    
   4.82962894       1.29409504      -7.00000000       3870.12769      -1.31230855    
   4.82962894       1.29409504      -8.00000000       3870.12769      -1.31230855    
   4.57987785       1.89704800      -7.00000000       4247.58008      -1.30405605    
   4.57987785       1.89704800      -6.00000000       4247.58008      -1.30405605    
   4.82962894       1.29409504      -6.00000000       4247.58008      -1.30405605    
   4.82962894       1.29409504      -7.00000000       4247.58008      -1.30405605    
   4.57987785       1.89704800      -6.00000000       4587.32471      -1.29348004    
   4.57987785       1.89704800      -5.00000000       4587.32471      -1.29348004    
   4.82962894       1.29409504      -5.00000000       4587.32471      -1.29348004    
   4.82962894       1.29409504      -6.00000000       4587.32471      -1.29348004    
   4.57987785       1.89704800      -5.00000000       4918.67188      -1.28188622    
   4.57987785       1.89704800      -4.00000000       4918.67188      -1.28188622    
   4.82962894       1.29409504      -4.00000000       4918.67188      -1.28188622    
   4.82962894       1.29409504      -5.00000000       4918.67188      -1.28188622    
   4.57987785       1.89704800      -4.00000000       5263.58643      -1.27020693    
   4.57987785       1.89704800      -3.00000000       5263.58643      -1.27020693    
   4.82962894       1.29409504      -3.00000000       5263.58643      -1.27020693    
   4.82962894       1.29409504      -4.00000000       5263.58643      -1.27020693    
   4.57987785       1.89704800      -3.00000000       5641.24805      -1.25928152    
   4.57987785       1.89704800      -2.00000000       5641.24805      -1.25928152    
   4.82962894       1.29409504      -2.00000000       5641.24805      -1.25928152    
   4.82962894       1.29409504      -3.00000000       5641.24805      -1.25928152    
   4.57987785       1.89704800      -2.00000000       6073.83398      -1.25005388    
   4.57987785       1.89704800      -1.00000000       6073.83398      -1.25005388    
   4.82962894       1.29409504      -1.00000000       6073.83398      -1.25005388    
   4.82962894       1.29409504      -2.00000000       6073.83398      -1.25005388    
   4.57987785       1.89704800      -1.00000000       6594.66943      -1.24391949    
   4.57987785       1.89704800       0.00000000       6594.66943      -1.24391949    
   4.82962894       1.29409504       0.00000000       6594.66943      -1.24391949    
   4.82962894       1.29409504      -1.00000000       6594.66943      -1.24391949    
   3.53553391       3.53553391      -10.0000000       2151.33496      -1.30436277    
   3.53553391       3.53553391      -9.00000000       2151.33496      -1.30436277    
   3.93283010       3.01776695      -9.00000000       2151.33496      -1.30436277    
   3.93283010       3.01776695      -10.0000000       2151.33496      -1.30436277    
   3.53553391       3.53553391      -9.00000000       2725.09985      -1.31683958    
   3.53553391       3.53553391      -8.00000000       2725.09985      -1.31683958    
   3.93283010       3.01776695      -8.00000000       2725.09985      -1.31683958    
   3.93283010       3.01776695      -9.00000000       2725.09985      -1.31683958    
   3.53553391       3.53553391      -8.00000000       3097.36768      -1.31348515    
   3.53553391       3.53553391      -7.00000000       3097.36768      -1.31348515    
   3.93283010       3.01776695      -7.00000000       3097.36768      -1.31348515    
   3.93283010       3.01776695      -8.00000000       3097.36768      -1.31348515    
   3.53553391       3.53553391      -7.00000000       3398.13525      -1.30516350    
   3.53553391       3.53553391      -6.00000000       3398.13525      -1.30516350    
   3.93283010       3.01776695      -6.00000000       3398.13525      -1.30516350    
   3.93283010       3.01776695      -7.00000000       3398.13525      -1.30516350    
   3.53553391       3.53553391      -6.00000000       3668.80884      -1.29454601    
   3.53553391       3.53553391      -5.00000000       3668.80884      -1.29454601    
   3.93283010       3.01776695      -5.00000000       3668.80884      -1.29454601    
   3.93283010       3.01776695      -6.00000000       3668.80884      -1.29454601    
   3.53553391       3.53553391      -5.00000000       3932.80322      -1.28292239    
   3.53553391       3.53553391      -4.00000000       3932.80322      -1.28292239    
   3.93283010       3.01776695      -4.00000000       3932.80322      -1.28292239    
   3.93283010       3.01776695      -5.00000000       3932.80322      -1.28292239    
   3.53553391       3.53553391      -4.00000000       4207.60498      -1.27121449    
   3.53553391       3.53553391      -3.00000000       4207.60498      -1.27121449    
   3.93283010       3.01776695      -3.00000000       4207.60498      -1.27121449    
   3.93283010       3.01776695      -4.00000000       4207.60498      -1.27121449    
   3.53553391       3.53553391      -3.00000000       4508.47656      -1.26025593    
   3.53553391       3.53553391      -2.00000000       4508.47656      -1.26025593    
   3.93283010       3.01776695      -2.00000000       4508.47656      -1.26025593    
   3.93283010       3.01776695      -3.00000000       4508.47656      -1.26025593    
   3.53553391       3.53553391      -2.00000000       4853.13135      -1.25098586    
   3.53553391       3.53553391      -1.00000000       4853.13135      -1.25098586    
   3.93283010       3.01776695      -1.00000000       4853.13135      -1.25098586    
   3.93283010       3.01776695      -2.00000000       4853.13135      -1.25098586    
   3.53553391       3.53553391      -1.00000000       5267.92236      -1.24479210    
   3.53553391       3.53553391       0.00000000       5267.92236      -1.24479210    
   3.93283010       3.01776695       0.00000000       5267.92236      -1.24479210    
   3.93283010       3.01776695      -1.00000000       5267.92236      -1.24479210    
   3.93283010       3.01776695      -10.0000000       2350.72632      -1.30221105    
   3.93283010       3.01776695      -9.00000000       2350.72632      -1.30221105    
   4.33012676       2.50000000      -9.00000000       2350.72632      -1.30221105    
   4.33012676       2.50000000      -10.0000000       2350.72632      -1.30221105    
   3.93283010       3.01776695      -9.00000000       2981.11450      -1.31516182    
   3.93283010       3.01776695      -8.00000000       2981.11450      -1.31516182    
   4.33012676       2.50000000      -8.00000000       2981.11450      -1.31516182    
   4.33012676       2.50000000      -9.00000000       2981.11450      -1.31516182    
   3.93283010       3.01776695      -8.00000000       3390.89014      -1.31198764    
   3.93283010       3.01776695      -7.00000000       3390.89014      -1.31198764    
   4.33012676       2.50000000      -7.00000000       3390.89014      -1.31198764    
   4.33012676       2.50000000      -8.00000000       3390.89014      -1.31198764    
   3.93283010       3.01776695      -7.00000000       3721.99683      -1.30375326    
   3.93283010       3.01776695      -6.00000000       3721.99683      -1.30375326    
   4.33012676       2.50000000      -6.00000000       3721.99683      -1.30375326    
   4.33012676       2.50000000      -7.00000000       3721.99683      -1.30375326    
   3.93283010       3.01776695      -6.00000000       4020.04199      -1.29318929    
   3.93283010       3.01776695      -5.00000000       4020.04199      -1.29318929    
   4.33012676       2.50000000      -5.00000000       4020.04199      -1.29318929    
   4.33012676       2.50000000      -6.00000000       4020.04199      -1.29318929    
   3.93283010       3.01776695      -5.00000000       4310.71680      -1.28160369    
   3.93283010       3.01776695      -4.00000000       4310.71680      -1.28160369    
   4.33012676       2.50000000      -4.00000000       4310.71680      -1.28160369    
   4.33012676       2.50000000      -5.00000000       4310.71680      -1.28160369    
   3.93283010       3.01776695      -4.00000000       4613.29102      -1.26993239    
   3.93283010       3.01776695      -3.00000000       4613.29102      -1.26993239    
   4.33012676       2.50000000      -3.00000000       4613.29102      -1.26993239    
   4.33012676       2.50000000      -4.00000000       4613.29102      -1.26993239    
   3.93283010       3.01776695      -3.00000000       4944.59961      -1.25901592    
   3.93283010       3.01776695      -2.00000000       4944.59961      -1.25901592    
   4.33012676       2.50000000      -2.00000000       4944.59961      -1.25901592    
   4.33012676       2.50000000      -3.00000000       4944.59961      -1.25901592    
   3.93283010       3.01776695      -2.00000000       5324.08398      -1.24979961    
   3.93283010       3.01776695      -1.00000000       5324.08398      -1.24979961    
   4.33012676       2.50000000      -1.00000000       5324.08398      -1.24979961    
   4.33012676       2.50000000      -2.00000000       5324.08398      -1.24979961    
   3.93283010       3.01776695      -1.00000000       5781.03516      -1.24368227    
   3.93283010       3.01776695       0.00000000       5781.03516      -1.24368227    
   4.33012676       2.50000000       0.00000000       5781.03516      -1.24368227    
   4.33012676       2.50000000      -1.00000000       5781.03516      -1.24368227    
   2.50000000       4.33012676      -10.0000000       1597.35303      -1.30521119    
   2.50000000       4.33012676      -9.00000000       1597.35303      -1.30521119    
   3.01776695       3.93283010      -9.00000000       1597.35303      -1.30521119    
   3.01776695       3.93283010      -10.0000000       1597.35303      -1.30521119    
   2.50000000       4.33012676      -9.00000000       2022.44568      -1.31750166    
   2.50000000       4.33012676      -8.00000000       2022.44568      -1.31750166    
   3.01776695       3.93283010      -8.00000000       2022.44568      -1.31750166    
   3.01776695       3.93283010      -9.00000000       2022.44568      -1.31750166    
   2.50000000       4.33012676      -8.00000000       2298.04590      -1.31407714    
   2.50000000       4.33012676      -7.00000000       2298.04590      -1.31407714    
   3.01776695       3.93283010      -7.00000000       2298.04590      -1.31407714    
   3.01776695       3.93283010      -8.00000000       2298.04590      -1.31407714    
   2.50000000       4.33012676      -7.00000000       2520.70532      -1.30572188    
   2.50000000       4.33012676      -6.00000000       2520.70532      -1.30572188    
   3.01776695       3.93283010      -6.00000000       2520.70532      -1.30572188    
   3.01776695       3.93283010      -7.00000000       2520.70532      -1.30572188    
   2.50000000       4.33012676      -6.00000000       2721.06348      -1.29508328    
   2.50000000       4.33012676      -5.00000000       2721.06348      -1.29508328    
   3.01776695       3.93283010      -5.00000000       2721.06348      -1.29508328    
   3.01776695       3.93283010      -6.00000000       2721.06348      -1.29508328    
   2.50000000       4.33012676      -5.00000000       2916.48706      -1.28344488    
   2.50000000       4.33012676      -4.00000000       2916.48706      -1.28344488    
   3.01776695       3.93283010      -4.00000000       2916.48706      -1.28344488    
   3.01776695       3.93283010      -5.00000000       2916.48706      -1.28344488    
   2.50000000       4.33012676      -4.00000000       3119.90625      -1.27172279    
   2.50000000       4.33012676      -3.00000000       3119.90625      -1.27172279    
   3.01776695       3.93283010      -3.00000000       3119.90625      -1.27172279    
   3.01776695       3.93283010      -4.00000000       3119.90625      -1.27172279    
   2.50000000       4.33012676      -3.00000000       3342.61816      -1.26074743    
   2.50000000       4.33012676      -2.00000000       3342.61816      -1.26074743    
   3.01776695       3.93283010      -2.00000000       3342.61816      -1.26074743    
   3.01776695       3.93283010      -3.00000000       3342.61816      -1.26074743    
   2.50000000       4.33012676      -2.00000000       3597.75049      -1.25145698    
   2.50000000       4.33012676      -1.00000000       3597.75049      -1.25145698    
   3.01776695       3.93283010      -1.00000000       3597.75049      -1.25145698    
   3.01776695       3.93283010      -2.00000000       3597.75049      -1.25145698    
   2.50000000       4.33012676      -1.00000000       3904.72998      -1.24523270    
   2.50000000       4.33012676       0.00000000       3904.72998      -1.24523270    
   3.01776695       3.93283010       0.00000000       3904.72998      -1.24523270    
   3.01776695       3.93283010      -1.00000000       3904.72998      -1.24523270    
   3.01776695       3.93283010      -10.0000000       1857.20215      -1.30154300    
   3.01776695       3.93283010      -9.00000000       1857.20215      -1.30154300    
   3.53553391       3.53553391      -9.00000000       1857.20215      -1.30154300    
   3.53553391       3.53553391      -10.0000000       1857.20215      -1.30154300    
   3.01776695       3.93283010      -9.00000000       2356.08960      -1.31464136    
   3.01776695       3.93283010      -8.00000000       2356.08960      -1.31464136    
   3.53553391       3.53553391      -8.00000000       2356.08960      -1.31464136    
   3.53553391       3.53553391      -9.00000000       2356.08960      -1.31464136    
   3.01776695       3.93283010      -8.00000000       2680.57178      -1.31152439    
   3.01776695       3.93283010      -7.00000000       2680.57178      -1.31152439    
   3.53553391       3.53553391      -7.00000000       2680.57178      -1.31152439    
   3.53553391       3.53553391      -8.00000000       2680.57178      -1.31152439    
   3.01776695       3.93283010      -7.00000000       2942.76904      -1.30331719    
   3.01776695       3.93283010      -6.00000000       2942.76904      -1.30331719    
   3.53553391       3.53553391      -6.00000000       2942.76904      -1.30331719    
   3.53553391       3.53553391      -7.00000000       2942.76904      -1.30331719    
   3.01776695       3.93283010      -6.00000000       3178.79712      -1.29276955    
   3.01776695       3.93283010      -5.00000000       3178.79712      -1.29276955    
   3.53553391       3.53553391      -5.00000000       3178.79712      -1.29276955    
   3.53553391       3.53553391      -6.00000000       3178.79712      -1.29276955    
   3.01776695       3.93283010      -5.00000000       3408.98901      -1.28119600    
   3.01776695       3.93283010      -4.00000000       3408.98901      -1.28119600    
   3.53553391       3.53553391      -4.00000000       3408.98901      -1.28119600    
   3.53553391       3.53553391      -5.00000000       3408.98901      -1.28119600    
   3.01776695       3.93283010      -4.00000000       3648.60742      -1.26953590    
   3.01776695       3.93283010      -3.00000000       3648.60742      -1.26953590    
   3.53553391       3.53553391      -3.00000000       3648.60742      -1.26953590    
   3.53553391       3.53553391      -4.00000000       3648.60742      -1.26953590    
   3.01776695       3.93283010      -3.00000000       3910.98340      -1.25863266    
   3.01776695       3.93283010      -2.00000000       3910.98340      -1.25863266    
   3.53553391       3.53553391      -2.00000000       3910.98340      -1.25863266    
   3.53553391       3.53553391      -3.00000000       3910.98340      -1.25863266    
   3.01776695       3.93283010      -2.00000000       4211.50342      -1.24943292    
   3.01776695       3.93283010      -1.00000000       4211.50342      -1.24943292    
   3.53553391       3.53553391      -1.00000000       4211.50342      -1.24943292    
   3.53553391       3.53553391      -2.00000000       4211.50342      -1.24943292    
   3.01776695       3.93283010      -1.00000000       4573.43262      -1.24333906    
   3.01776695       3.93283010       0.00000000       4573.43262      -1.24333906    
   3.53553391       3.53553391       0.00000000       4573.43262      -1.24333906    
   3.53553391       3.53553391      -1.00000000       4573.43262      -1.24333906    
   1.29409504       4.82962894      -10.0000000       934.516541      -1.30716491    
   1.29409504       4.82962894      -9.00000000       934.516541      -1.30716491    
   1.89704800       4.57987785      -9.00000000       934.516541      -1.30716491    
   1.89704800       4.57987785      -10.0000000       934.516541      -1.30716491    
   1.29409504       4.82962894      -9.00000000       1181.96545      -1.31903017    
   1.29409504       4.82962894      -8.00000000       1181.96545      -1.31903017    
   1.89704800       4.57987785      -8.00000000       1181.96545      -1.31903017    
   1.89704800       4.57987785      -9.00000000       1181.96545      -1.31903017    
   1.29409504       4.82962894      -8.00000000       1342.11890      -1.31544495    
   1.29409504       4.82962894      -7.00000000       1342.11890      -1.31544495    
   1.89704800       4.57987785      -7.00000000       1342.11890      -1.31544495    
   1.89704800       4.57987785      -8.00000000       1342.11890      -1.31544495    
   1.29409504       4.82962894      -7.00000000       1471.49304      -1.30700982    
   1.29409504       4.82962894      -6.00000000       1471.49304      -1.30700982    
   1.89704800       4.57987785      -6.00000000       1471.49304      -1.30700982    
   1.89704800       4.57987785      -7.00000000       1471.49304      -1.30700982    
   1.29409504       4.82962894      -6.00000000       1587.88623      -1.29632425    
   1.29409504       4.82962894      -5.00000000       1587.88623      -1.29632425    
   1.89704800       4.57987785      -5.00000000       1587.88623      -1.29632425    
   1.89704800       4.57987785      -6.00000000       1587.88623      -1.29632425    
   1.29409504       4.82962894      -5.00000000       1701.41785      -1.28465188    
   1.29409504       4.82962894      -4.00000000       1701.41785      -1.28465188    
   1.89704800       4.57987785      -4.00000000       1701.41785      -1.28465188    
   1.89704800       4.57987785      -5.00000000       1701.41785      -1.28465188    
   1.29409504       4.82962894      -4.00000000       1819.59351      -1.27289772    
   1.29409504       4.82962894      -3.00000000       1819.59351      -1.27289772    
   1.89704800       4.57987785      -3.00000000       1819.59351      -1.27289772    