 VARIABLES="X" "Y" "Z" "abs(p) (Pa)" "angle(p) (rad)"
ZONE N=   1080,E =     600, F=FEPOINT, ET=QUADRILATERAL
   4.82962894       1.29409504      -10.0000000       463.883453       2.32173872    
   4.82962894       1.29409504      -9.00000000       463.883453       2.32173872    
   4.91481400      0.647047520      -9.00000000       463.883453       2.32173872    
   4.91481400      0.647047520      -10.0000000       463.883453       2.32173872    
   4.82962894       1.29409504      -9.00000000       533.508911       2.11209679    
   4.82962894       1.29409504      -8.00000000       533.508911       2.11209679    
   4.91481400      0.647047520      -8.00000000       533.508911       2.11209679    
   4.91481400      0.647047520      -9.00000000       533.508911       2.11209679    
   4.82962894       1.29409504      -8.00000000       588.322998       2.02520180    
   4.82962894       1.29409504      -7.00000000       588.322998       2.02520180    
   4.91481400      0.647047520      -7.00000000       588.322998       2.02520180    
   4.91481400      0.647047520      -8.00000000       588.322998       2.02520180    
   4.82962894       1.29409504      -7.00000000       632.256714       1.97649324    
   4.82962894       1.29409504      -6.00000000       632.256714       1.97649324    
   4.91481400      0.647047520      -6.00000000       632.256714       1.97649324    
   4.91481400      0.647047520      -7.00000000       632.256714       1.97649324    
   4.82962894       1.29409504      -6.00000000       668.690552       1.94598544    
   4.82962894       1.29409504      -5.00000000       668.690552       1.94598544    
   4.91481400      0.647047520      -5.00000000       668.690552       1.94598544    
   4.91481400      0.647047520      -6.00000000       668.690552       1.94598544    
   4.82962894       1.29409504      -5.00000000       699.771118       1.92596138    
   4.82962894       1.29409504      -4.00000000       699.771118       1.92596138    
   4.91481400      0.647047520      -4.00000000       699.771118       1.92596138    
   4.91481400      0.647047520      -5.00000000       699.771118       1.92596138    
   4.82962894       1.29409504      -4.00000000       726.807007       1.91240144    
   4.82962894       1.29409504      -3.00000000       726.807007       1.91240144    
   4.91481400      0.647047520      -3.00000000       726.807007       1.91240144    
   4.91481400      0.647047520      -4.00000000       726.807007       1.91240144    
   4.82962894       1.29409504      -3.00000000       750.544434       1.90336955    
   4.82962894       1.29409504      -2.00000000       750.544434       1.90336955    
   4.91481400      0.647047520      -2.00000000       750.544434       1.90336955    
   4.91481400      0.647047520      -3.00000000       750.544434       1.90336955    
   4.82962894       1.29409504      -2.00000000       771.498413       1.89797604    
   4.82962894       1.29409504      -1.00000000       771.498413       1.89797604    
   4.91481400      0.647047520      -1.00000000       771.498413       1.89797604    
   4.91481400      0.647047520      -2.00000000       771.498413       1.89797604    
   4.82962894       1.29409504      -1.00000000       789.726746       1.89553905    
   4.82962894       1.29409504       0.00000000       789.726746       1.89553905    
   4.91481400      0.647047520       0.00000000       789.726746       1.89553905    
   4.91481400      0.647047520      -1.00000000       789.726746       1.89553905    
   4.91481400      0.647047520      -10.0000000       469.321320       2.31341887    
   4.91481400      0.647047520      -9.00000000       469.321320       2.31341887    
   5.00000000       0.00000000      -9.00000000       469.321320       2.31341887    
   5.00000000       0.00000000      -10.0000000       469.321320       2.31341887    
   4.91481400      0.647047520      -9.00000000       541.435852       2.10569358    
   4.91481400      0.647047520      -8.00000000       541.435852       2.10569358    
   5.00000000       0.00000000      -8.00000000       541.435852       2.10569358    
   5.00000000       0.00000000      -9.00000000       541.435852       2.10569358    
   4.91481400      0.647047520      -8.00000000       597.662842       2.01990080    
   4.91481400      0.647047520      -7.00000000       597.662842       2.01990080    
   5.00000000       0.00000000      -7.00000000       597.662842       2.01990080    
   5.00000000       0.00000000      -8.00000000       597.662842       2.01990080    
   4.91481400      0.647047520      -7.00000000       642.593018       1.97186518    
   4.91481400      0.647047520      -6.00000000       642.593018       1.97186518    
   5.00000000       0.00000000      -6.00000000       642.593018       1.97186518    
   5.00000000       0.00000000      -7.00000000       642.593018       1.97186518    
   4.91481400      0.647047520      -6.00000000       679.796265       1.94179189    
   4.91481400      0.647047520      -5.00000000       679.796265       1.94179189    
   5.00000000       0.00000000      -5.00000000       679.796265       1.94179189    
   5.00000000       0.00000000      -6.00000000       679.796265       1.94179189    
   4.91481400      0.647047520      -5.00000000       711.500061       1.92205679    
   4.91481400      0.647047520      -4.00000000       711.500061       1.92205679    
   5.00000000       0.00000000      -4.00000000       711.500061       1.92205679    
   5.00000000       0.00000000      -5.00000000       711.500061       1.92205679    
   4.91481400      0.647047520      -4.00000000       739.058350       1.90869379    
   4.91481400      0.647047520      -3.00000000       739.058350       1.90869379    
   5.00000000       0.00000000      -3.00000000       739.058350       1.90869379    
   5.00000000       0.00000000      -4.00000000       739.058350       1.90869379    
   4.91481400      0.647047520      -3.00000000       763.241516       1.89979327    
   4.91481400      0.647047520      -2.00000000       763.241516       1.89979327    
   5.00000000       0.00000000      -2.00000000       763.241516       1.89979327    
   5.00000000       0.00000000      -3.00000000       763.241516       1.89979327    
   4.91481400      0.647047520      -2.00000000       784.577698       1.89447784    
   4.91481400      0.647047520      -1.00000000       784.577698       1.89447784    
   5.00000000       0.00000000      -1.00000000       784.577698       1.89447784    
   5.00000000       0.00000000      -2.00000000       784.577698       1.89447784    
   4.91481400      0.647047520      -1.00000000       803.136597       1.89207220    
   4.91481400      0.647047520       0.00000000       803.136597       1.89207220    
   5.00000000       0.00000000       0.00000000       803.136597       1.89207220    
   5.00000000       0.00000000      -1.00000000       803.136597       1.89207220    
   4.33012676       2.50000000      -10.0000000       434.840149       2.37158513    
   4.33012676       2.50000000      -9.00000000       434.840149       2.37158513    
   4.57987785       1.89704800      -9.00000000       434.840149       2.37158513    
   4.57987785       1.89704800      -10.0000000       434.840149       2.37158513    
   4.33012676       2.50000000      -9.00000000       491.072144       2.15109873    
   4.33012676       2.50000000      -8.00000000       491.072144       2.15109873    
   4.57987785       1.89704800      -8.00000000       491.072144       2.15109873    
   4.57987785       1.89704800      -9.00000000       491.072144       2.15109873    
   4.33012676       2.50000000      -8.00000000       538.401367       2.05764985    
   4.33012676       2.50000000      -7.00000000       538.401367       2.05764985    
   4.57987785       1.89704800      -7.00000000       538.401367       2.05764985    
   4.57987785       1.89704800      -8.00000000       538.401367       2.05764985    
   4.33012676       2.50000000      -7.00000000       577.076599       2.00489974    
   4.33012676       2.50000000      -6.00000000       577.076599       2.00489974    
   4.57987785       1.89704800      -6.00000000       577.076599       2.00489974    
   4.57987785       1.89704800      -7.00000000       577.076599       2.00489974    
   4.33012676       2.50000000      -6.00000000       609.460144       1.97177017    
   4.33012676       2.50000000      -5.00000000       609.460144       1.97177017    
   4.57987785       1.89704800      -5.00000000       609.460144       1.97177017    
   4.57987785       1.89704800      -6.00000000       609.460144       1.97177017    
   4.33012676       2.50000000      -5.00000000       637.259949       1.94999659    
   4.33012676       2.50000000      -4.00000000       637.259949       1.94999659    
   4.57987785       1.89704800      -4.00000000       637.259949       1.94999659    
   4.57987785       1.89704800      -5.00000000       637.259949       1.94999659    
   4.33012676       2.50000000      -4.00000000       661.538269       1.93524563    
   4.33012676       2.50000000      -3.00000000       661.538269       1.93524563    
   4.57987785       1.89704800      -3.00000000       661.538269       1.93524563    
   4.57987785       1.89704800      -4.00000000       661.538269       1.93524563    
   4.33012676       2.50000000      -3.00000000       682.919617       1.92541957    
   4.33012676       2.50000000      -2.00000000       682.919617       1.92541957    
   4.57987785       1.89704800      -2.00000000       682.919617       1.92541957    
   4.57987785       1.89704800      -3.00000000       682.919617       1.92541957    
   4.33012676       2.50000000      -2.00000000       701.854736       1.91955185    
   4.33012676       2.50000000      -1.00000000       701.854736       1.91955185    
   4.57987785       1.89704800      -1.00000000       701.854736       1.91955185    
   4.57987785       1.89704800      -2.00000000       701.854736       1.91955185    
   4.33012676       2.50000000      -1.00000000       718.367188       1.91691029    
   4.33012676       2.50000000       0.00000000       718.367188       1.91691029    
   4.57987785       1.89704800       0.00000000       718.367188       1.91691029    
   4.57987785       1.89704800      -1.00000000       718.367188       1.91691029    
   4.57987785       1.89704800      -10.0000000       450.213989       2.34415293    
   4.57987785       1.89704800      -9.00000000       450.213989       2.34415293    
   4.82962894       1.29409504      -9.00000000       450.213989       2.34415293    
   4.82962894       1.29409504      -10.0000000       450.213989       2.34415293    
   4.57987785       1.89704800      -9.00000000       513.892517       2.12920976    
   4.57987785       1.89704800      -8.00000000       513.892517       2.12920976    
   4.82962894       1.29409504      -8.00000000       513.892517       2.12920976    
   4.82962894       1.29409504      -9.00000000       513.892517       2.12920976    
   4.57987785       1.89704800      -8.00000000       565.451416       2.03926945    
   4.57987785       1.89704800      -7.00000000       565.451416       2.03926945    
   4.82962894       1.29409504      -7.00000000       565.451416       2.03926945    
   4.82962894       1.29409504      -8.00000000       565.451416       2.03926945    
   4.57987785       1.89704800      -7.00000000       607.097839       1.98872638    
   4.57987785       1.89704800      -6.00000000       607.097839       1.98872638    
   4.82962894       1.29409504      -6.00000000       607.097839       1.98872638    
   4.82962894       1.29409504      -7.00000000       607.097839       1.98872638    
   4.57987785       1.89704800      -6.00000000       641.767395       1.95704067    
   4.57987785       1.89704800      -5.00000000       641.767395       1.95704067    
   4.82962894       1.29409504      -5.00000000       641.767395       1.95704067    
   4.82962894       1.29409504      -6.00000000       641.767395       1.95704067    
   4.57987785       1.89704800      -5.00000000       671.410522       1.93623686    
   4.57987785       1.89704800      -4.00000000       671.410522       1.93623686    
   4.82962894       1.29409504      -4.00000000       671.410522       1.93623686    
   4.82962894       1.29409504      -5.00000000       671.410522       1.93623686    
   4.57987785       1.89704800      -4.00000000       697.233521       1.92214811    
   4.57987785       1.89704800      -3.00000000       697.233521       1.92214811    
   4.82962894       1.29409504      -3.00000000       697.233521       1.92214811    
   4.82962894       1.29409504      -4.00000000       697.233521       1.92214811    
   4.57987785       1.89704800      -3.00000000       719.929504       1.91276443    
   4.57987785       1.89704800      -2.00000000       719.929504       1.91276443    
   4.82962894       1.29409504      -2.00000000       719.929504       1.91276443    
   4.82962894       1.29409504      -3.00000000       719.929504       1.91276443    
   4.57987785       1.89704800      -2.00000000       739.984924       1.90716147    
   4.57987785       1.89704800      -1.00000000       739.984924       1.90716147    
   4.82962894       1.29409504      -1.00000000       739.984924       1.90716147    
   4.82962894       1.29409504      -2.00000000       739.984924       1.90716147    
   4.57987785       1.89704800      -1.00000000       757.464661       1.90462708    
   4.57987785       1.89704800       0.00000000       757.464661       1.90462708    
   4.82962894       1.29409504       0.00000000       757.464661       1.90462708    
   4.82962894       1.29409504      -1.00000000       757.464661       1.90462708    
   3.53553391       3.53553391      -10.0000000       387.779144       2.47778273    
   3.53553391       3.53553391      -9.00000000       387.779144       2.47778273    
   3.93283010       3.01776695      -9.00000000       387.779144       2.47778273    
   3.93283010       3.01776695      -10.0000000       387.779144       2.47778273    
   3.53553391       3.53553391      -9.00000000       419.813171       2.24021721    
   3.53553391       3.53553391      -8.00000000       419.813171       2.24021721    
   3.93283010       3.01776695      -8.00000000       419.813171       2.24021721    
   3.93283010       3.01776695      -9.00000000       419.813171       2.24021721    
   3.53553391       3.53553391      -8.00000000       453.558167       2.13382864    
   3.53553391       3.53553391      -7.00000000       453.558167       2.13382864    
   3.93283010       3.01776695      -7.00000000       453.558167       2.13382864    
   3.93283010       3.01776695      -8.00000000       453.558167       2.13382864    
   3.53553391       3.53553391      -7.00000000       482.747711       2.07258224    
   3.53553391       3.53553391      -6.00000000       482.747711       2.07258224    
   3.93283010       3.01776695      -6.00000000       482.747711       2.07258224    
   3.93283010       3.01776695      -7.00000000       482.747711       2.07258224    
   3.53553391       3.53553391      -6.00000000       507.879700       2.03377008    
   3.53553391       3.53553391      -5.00000000       507.879700       2.03377008    
   3.93283010       3.01776695      -5.00000000       507.879700       2.03377008    
   3.93283010       3.01776695      -6.00000000       507.879700       2.03377008    
   3.53553391       3.53553391      -5.00000000       529.837219       2.00814366    
   3.53553391       3.53553391      -4.00000000       529.837219       2.00814366    
   3.93283010       3.01776695      -4.00000000       529.837219       2.00814366    
   3.93283010       3.01776695      -5.00000000       529.837219       2.00814366    
   3.53553391       3.53553391      -4.00000000       549.235596       1.99074018    
   3.53553391       3.53553391      -3.00000000       549.235596       1.99074018    
   3.93283010       3.01776695      -3.00000000       549.235596       1.99074018    
   3.93283010       3.01776695      -4.00000000       549.235596       1.99074018    
   3.53553391       3.53553391      -3.00000000       566.470032       1.97913492    
   3.53553391       3.53553391      -2.00000000       566.470032       1.97913492    
   3.93283010       3.01776695      -2.00000000       566.470032       1.97913492    
   3.93283010       3.01776695      -3.00000000       566.470032       1.97913492    
   3.53553391       3.53553391      -2.00000000       581.870422       1.97220170    
   3.53553391       3.53553391      -1.00000000       581.870422       1.97220170    
   3.93283010       3.01776695      -1.00000000       581.870422       1.97220170    
   3.93283010       3.01776695      -2.00000000       581.870422       1.97220170    
   3.53553391       3.53553391      -1.00000000       595.408752       1.96909750    
   3.53553391       3.53553391       0.00000000       595.408752       1.96909750    
   3.93283010       3.01776695       0.00000000       595.408752       1.96909750    
   3.93283010       3.01776695      -1.00000000       595.408752       1.96909750    
   3.93283010       3.01776695      -10.0000000       410.008331       2.42304111    
   3.93283010       3.01776695      -9.00000000       410.008331       2.42304111    
   4.33012676       2.50000000      -9.00000000       410.008331       2.42304111    
   4.33012676       2.50000000      -10.0000000       410.008331       2.42304111    
   3.93283010       3.01776695      -9.00000000       454.345795       2.19270754    
   3.93283010       3.01776695      -8.00000000       454.345795       2.19270754    
   4.33012676       2.50000000      -8.00000000       454.345795       2.19270754    
   4.33012676       2.50000000      -9.00000000       454.345795       2.19270754    
   3.93283010       3.01776695      -8.00000000       495.144592       2.09261823    
   3.93283010       3.01776695      -7.00000000       495.144592       2.09261823    
   4.33012676       2.50000000      -7.00000000       495.144592       2.09261823    
   4.33012676       2.50000000      -8.00000000       495.144592       2.09261823    
   3.93283010       3.01776695      -7.00000000       529.259583       2.03568053    
   3.93283010       3.01776695      -6.00000000       529.259583       2.03568053    
   4.33012676       2.50000000      -6.00000000       529.259583       2.03568053    
   4.33012676       2.50000000      -7.00000000       529.259583       2.03568053    
   3.93283010       3.01776695      -6.00000000       558.151184       1.99979949    
   3.93283010       3.01776695      -5.00000000       558.151184       1.99979949    
   4.33012676       2.50000000      -5.00000000       558.151184       1.99979949    
   4.33012676       2.50000000      -6.00000000       558.151184       1.99979949    
   3.93283010       3.01776695      -5.00000000       583.120972       1.97618318    
   3.93283010       3.01776695      -4.00000000       583.120972       1.97618318    
   4.33012676       2.50000000      -4.00000000       583.120972       1.97618318    
   4.33012676       2.50000000      -5.00000000       583.120972       1.97618318    
   3.93283010       3.01776695      -4.00000000       605.022949       1.96017277    
   3.93283010       3.01776695      -3.00000000       605.022949       1.96017277    
   4.33012676       2.50000000      -3.00000000       605.022949       1.96017277    
   4.33012676       2.50000000      -4.00000000       605.022949       1.96017277    
   3.93283010       3.01776695      -3.00000000       624.375916       1.94950414    
   3.93283010       3.01776695      -2.00000000       624.375916       1.94950414    
   4.33012676       2.50000000      -2.00000000       624.375916       1.94950414    
   4.33012676       2.50000000      -3.00000000       624.375916       1.94950414    
   3.93283010       3.01776695      -2.00000000       641.568726       1.94313359    
   3.93283010       3.01776695      -1.00000000       641.568726       1.94313359    
   4.33012676       2.50000000      -1.00000000       641.568726       1.94313359    
   4.33012676       2.50000000      -2.00000000       641.568726       1.94313359    
   3.93283010       3.01776695      -1.00000000       656.637390       1.94025791    
   3.93283010       3.01776695       0.00000000       656.637390       1.94025791    
   4.33012676       2.50000000       0.00000000       656.637390       1.94025791    
   4.33012676       2.50000000      -1.00000000       656.637390       1.94025791    
   2.50000000       4.33012676      -10.0000000       334.539459       2.66994333    
   2.50000000       4.33012676      -9.00000000       334.539459       2.66994333    
   3.01776695       3.93283010      -9.00000000       334.539459       2.66994333    
   3.01776695       3.93283010      -10.0000000       334.539459       2.66994333    
   2.50000000       4.33012676      -9.00000000       332.554321       2.42572021    
   2.50000000       4.33012676      -8.00000000       332.554321       2.42572021    
   3.01776695       3.93283010      -8.00000000       332.554321       2.42572021    
   3.01776695       3.93283010      -9.00000000       332.554321       2.42572021    
   2.50000000       4.33012676      -8.00000000       346.442780       2.30199528    
   2.50000000       4.33012676      -7.00000000       346.442780       2.30199528    
   3.01776695       3.93283010      -7.00000000       346.442780       2.30199528    
   3.01776695       3.93283010      -8.00000000       346.442780       2.30199528    
   2.50000000       4.33012676      -7.00000000       361.777771       2.22680902    
   2.50000000       4.33012676      -6.00000000       361.777771       2.22680902    
   3.01776695       3.93283010      -6.00000000       361.777771       2.22680902    
   3.01776695       3.93283010      -7.00000000       361.777771       2.22680902    
   2.50000000       4.33012676      -6.00000000       376.421539       2.17778873    
   2.50000000       4.33012676      -5.00000000       376.421539       2.17778873    
   3.01776695       3.93283010      -5.00000000       376.421539       2.17778873    
   3.01776695       3.93283010      -6.00000000       376.421539       2.17778873    
   2.50000000       4.33012676      -5.00000000       390.038788       2.14487910    
   2.50000000       4.33012676      -4.00000000       390.038788       2.14487910    
   3.01776695       3.93283010      -4.00000000       390.038788       2.14487910    
   3.01776695       3.93283010      -5.00000000       390.038788       2.14487910    
   2.50000000       4.33012676      -4.00000000       402.555725       2.12231088    
   2.50000000       4.33012676      -3.00000000       402.555725       2.12231088    
   3.01776695       3.93283010      -3.00000000       402.555725       2.12231088    
   3.01776695       3.93283010      -4.00000000       402.555725       2.12231088    
   2.50000000       4.33012676      -3.00000000       414.020508       2.10717678    
   2.50000000       4.33012676      -2.00000000       414.020508       2.10717678    
   3.01776695       3.93283010      -2.00000000       414.020508       2.10717678    
   3.01776695       3.93283010      -3.00000000       414.020508       2.10717678    
   2.50000000       4.33012676      -2.00000000       424.580750       2.09810567    
   2.50000000       4.33012676      -1.00000000       424.580750       2.09810567    
   3.01776695       3.93283010      -1.00000000       424.580750       2.09810567    
   3.01776695       3.93283010      -2.00000000       424.580750       2.09810567    
   2.50000000       4.33012676      -1.00000000       434.128723       2.09407377    
   2.50000000       4.33012676       0.00000000       434.128723       2.09407377    
   3.01776695       3.93283010       0.00000000       434.128723       2.09407377    
   3.01776695       3.93283010      -1.00000000       434.128723       2.09407377    
   3.01776695       3.93283010      -10.0000000       357.513489       2.57316113    
   3.01776695       3.93283010      -9.00000000       357.513489       2.57316113    
   3.53553391       3.53553391      -9.00000000       357.513489       2.57316113    
   3.53553391       3.53553391      -10.0000000       357.513489       2.57316113    
   3.01776695       3.93283010      -9.00000000       371.919708       2.32697868    
   3.01776695       3.93283010      -8.00000000       371.919708       2.32697868    
   3.53553391       3.53553391      -8.00000000       371.919708       2.32697868    
   3.53553391       3.53553391      -9.00000000       371.919708       2.32697868    
   3.01776695       3.93283010      -8.00000000       395.728546       2.21024704    
   3.01776695       3.93283010      -7.00000000       395.728546       2.21024704    
   3.53553391       3.53553391      -7.00000000       395.728546       2.21024704    
   3.53553391       3.53553391      -8.00000000       395.728546       2.21024704    
   3.01776695       3.93283010      -7.00000000       418.022705       2.14155054    
   3.01776695       3.93283010      -6.00000000       418.022705       2.14155054    
   3.53553391       3.53553391      -6.00000000       418.022705       2.14155054    
   3.53553391       3.53553391      -7.00000000       418.022705       2.14155054    
   3.01776695       3.93283010      -6.00000000       437.931244       2.09753323    
   3.01776695       3.93283010      -5.00000000       437.931244       2.09753323    
   3.53553391       3.53553391      -5.00000000       437.931244       2.09753323    
   3.53553391       3.53553391      -6.00000000       437.931244       2.09753323    
   3.01776695       3.93283010      -5.00000000       455.708740       2.06829810    
   3.01776695       3.93283010      -4.00000000       455.708740       2.06829810    
   3.53553391       3.53553391      -4.00000000       455.708740       2.06829810    
   3.53553391       3.53553391      -5.00000000       455.708740       2.06829810    
   3.01776695       3.93283010      -4.00000000       471.636719       2.04837656    
   3.01776695       3.93283010      -3.00000000       471.636719       2.04837656    
   3.53553391       3.53553391      -3.00000000       471.636719       2.04837656    
   3.53553391       3.53553391      -4.00000000       471.636719       2.04837656    
   3.01776695       3.93283010      -3.00000000       485.942230       2.03506565    
   3.01776695       3.93283010      -2.00000000       485.942230       2.03506565    
   3.53553391       3.53553391      -2.00000000       485.942230       2.03506565    
   3.53553391       3.53553391      -3.00000000       485.942230       2.03506565    
   3.01776695       3.93283010      -2.00000000       498.859772       2.02710629    
   3.01776695       3.93283010      -1.00000000       498.859772       2.02710629    
   3.53553391       3.53553391      -1.00000000       498.859772       2.02710629    
   3.53553391       3.53553391      -2.00000000       498.859772       2.02710629    
   3.01776695       3.93283010      -1.00000000       510.369446       2.02352071    
   3.01776695       3.93283010       0.00000000       510.369446       2.02352071    
   3.53553391       3.53553391       0.00000000       510.369446       2.02352071    
   3.53553391       3.53553391      -1.00000000       510.369446       2.02352071    
   1.29409504       4.82962894      -10.0000000       295.669952       2.97915006    
   1.29409504       4.82962894      -9.00000000       295.669952       2.97915006    
   1.89704800       4.57987785      -9.00000000       295.669952       2.97915006    
   1.89704800       4.57987785      -10.0000000       295.669952       2.97915006    
   1.29409504       4.82962894      -9.00000000       257.446014       2.80394387    
   1.29409504       4.82962894      -8.00000000       257.446014       2.80394387    
   1.89704800       4.57987785      -8.00000000       257.446014       2.80394387    
   1.89704800       4.57987785      -9.00000000       257.446014       2.80394387    
   1.29409504       4.82962894      -8.00000000       246.930710       2.69191885    
   1.29409504       4.82962894      -7.00000000       246.930710       2.69191885    
   1.89704800       4.57987785      -7.00000000       246.930710       2.69191885    
   1.89704800       4.57987785      -8.00000000       246.930710       2.69191885    
   1.29409504       4.82962894      -7.00000000       244.350449       2.61356211    
   1.29409504       4.82962894      -6.00000000       244.350449       2.61356211    
   1.89704800       4.57987785      -6.00000000       244.350449       2.61356211    
   1.89704800       4.57987785      -7.00000000       244.350449       2.61356211    
   1.29409504       4.82962894      -6.00000000       245.271759       2.55762768    
   1.29409504       4.82962894      -5.00000000       245.271759       2.55762768    
   1.89704800       4.57987785      -5.00000000       245.271759       2.55762768    
   1.89704800       4.57987785      -6.00000000       245.271759       2.55762768    
   1.29409504       4.82962894      -5.00000000       248.070053       2.51770902    
   1.29409504       4.82962894      -4.00000000       248.070053       2.51770902    
   1.89704800       4.57987785      -4.00000000       248.070053       2.51770902    
   1.89704800       4.57987785      -5.00000000       248.070053       2.51770902    
   1.29409504       4.82962894      -4.00000000       251.825500       2.48922658    
   1.29409504       4.82962894      -3.00000000       251.825500       2.48922658    
   1.89704800       4.57987785      -3.00000000       251.825500       2.48922658    