 VARIABLES="X" "Y" "Z" "abs(p) (Pa)" "angle(p) (rad)"
ZONE N=   1080,E =     600, F=FEPOINT, ET=QUADRILATERAL
   4.82962894       1.29409504      -10.0000000       385.513794       1.62693405    
   4.82962894       1.29409504      -9.00000000       385.513794       1.62693405    
   4.91481400      0.647047520      -9.00000000       385.513794       1.62693405    
   4.91481400      0.647047520      -10.0000000       385.513794       1.62693405    
   4.82962894       1.29409504      -9.00000000       461.764832       1.62347448    
   4.82962894       1.29409504      -8.00000000       461.764832       1.62347448    
   4.91481400      0.647047520      -8.00000000       461.764832       1.62347448    
   4.91481400      0.647047520      -9.00000000       461.764832       1.62347448    
   4.82962894       1.29409504      -8.00000000       669.963806       1.60993266    
   4.82962894       1.29409504      -7.00000000       669.963806       1.60993266    
   4.91481400      0.647047520      -7.00000000       669.963806       1.60993266    
   4.91481400      0.647047520      -8.00000000       669.963806       1.60993266    
   4.82962894       1.29409504      -7.00000000       932.536865       1.60062480    
   4.82962894       1.29409504      -6.00000000       932.536865       1.60062480    
   4.91481400      0.647047520      -6.00000000       932.536865       1.60062480    
   4.91481400      0.647047520      -7.00000000       932.536865       1.60062480    
   4.82962894       1.29409504      -6.00000000       1222.27600       1.59472942    
   4.82962894       1.29409504      -5.00000000       1222.27600       1.59472942    
   4.91481400      0.647047520      -5.00000000       1222.27600       1.59472942    
   4.91481400      0.647047520      -6.00000000       1222.27600       1.59472942    
   4.82962894       1.29409504      -5.00000000       1523.29871       1.59087825    
   4.82962894       1.29409504      -4.00000000       1523.29871       1.59087825    
   4.91481400      0.647047520      -4.00000000       1523.29871       1.59087825    
   4.91481400      0.647047520      -5.00000000       1523.29871       1.59087825    
   4.82962894       1.29409504      -4.00000000       1821.86609       1.58828902    
   4.82962894       1.29409504      -3.00000000       1821.86609       1.58828902    
   4.91481400      0.647047520      -3.00000000       1821.86609       1.58828902    
   4.91481400      0.647047520      -4.00000000       1821.86609       1.58828902    
   4.82962894       1.29409504      -3.00000000       2104.89111       1.58652520    
   4.82962894       1.29409504      -2.00000000       2104.89111       1.58652520    
   4.91481400      0.647047520      -2.00000000       2104.89111       1.58652520    
   4.91481400      0.647047520      -3.00000000       2104.89111       1.58652520    
   4.82962894       1.29409504      -2.00000000       2357.07666       1.58535433    
   4.82962894       1.29409504      -1.00000000       2357.07666       1.58535433    
   4.91481400      0.647047520      -1.00000000       2357.07666       1.58535433    
   4.91481400      0.647047520      -2.00000000       2357.07666       1.58535433    
   4.82962894       1.29409504      -1.00000000       2551.17432       1.58471167    
   4.82962894       1.29409504       0.00000000       2551.17432       1.58471167    
   4.91481400      0.647047520       0.00000000       2551.17432       1.58471167    
   4.91481400      0.647047520      -1.00000000       2551.17432       1.58471167    
   4.91481400      0.647047520      -10.0000000       116.287285       1.63669264    
   4.91481400      0.647047520      -9.00000000       116.287285       1.63669264    
   5.00000000       0.00000000      -9.00000000       116.287285       1.63669264    
   5.00000000       0.00000000      -10.0000000       116.287285       1.63669264    
   4.91481400      0.647047520      -9.00000000       152.716980       1.62735164    
   4.91481400      0.647047520      -8.00000000       152.716980       1.62735164    
   5.00000000       0.00000000      -8.00000000       152.716980       1.62735164    
   5.00000000       0.00000000      -9.00000000       152.716980       1.62735164    
   4.91481400      0.647047520      -8.00000000       238.362640       1.60987020    
   4.91481400      0.647047520      -7.00000000       238.362640       1.60987020    
   5.00000000       0.00000000      -7.00000000       238.362640       1.60987020    
   5.00000000       0.00000000      -8.00000000       238.362640       1.60987020    
   4.91481400      0.647047520      -7.00000000       343.412537       1.59956682    
   4.91481400      0.647047520      -6.00000000       343.412537       1.59956682    
   5.00000000       0.00000000      -6.00000000       343.412537       1.59956682    
   5.00000000       0.00000000      -7.00000000       343.412537       1.59956682    
   4.91481400      0.647047520      -6.00000000       458.239166       1.59346592    
   4.91481400      0.647047520      -5.00000000       458.239166       1.59346592    
   5.00000000       0.00000000      -5.00000000       458.239166       1.59346592    
   5.00000000       0.00000000      -6.00000000       458.239166       1.59346592    
   4.91481400      0.647047520      -5.00000000       577.032898       1.58962584    
   4.91481400      0.647047520      -4.00000000       577.032898       1.58962584    
   5.00000000       0.00000000      -4.00000000       577.032898       1.58962584    
   5.00000000       0.00000000      -5.00000000       577.032898       1.58962584    
   4.91481400      0.647047520      -4.00000000       695.188782       1.58707941    
   4.91481400      0.647047520      -3.00000000       695.188782       1.58707941    
   5.00000000       0.00000000      -3.00000000       695.188782       1.58707941    
   5.00000000       0.00000000      -4.00000000       695.188782       1.58707941    
   4.91481400      0.647047520      -3.00000000       807.638489       1.58536088    
   4.91481400      0.647047520      -2.00000000       807.638489       1.58536088    
   5.00000000       0.00000000      -2.00000000       807.638489       1.58536088    
   5.00000000       0.00000000      -3.00000000       807.638489       1.58536088    
   4.91481400      0.647047520      -2.00000000       909.126831       1.58420813    
   4.91481400      0.647047520      -1.00000000       909.126831       1.58420813    
   5.00000000       0.00000000      -1.00000000       909.126831       1.58420813    
   5.00000000       0.00000000      -2.00000000       909.126831       1.58420813    
   4.91481400      0.647047520      -1.00000000       988.898193       1.58354497    
   4.91481400      0.647047520       0.00000000       988.898193       1.58354497    
   5.00000000       0.00000000       0.00000000       988.898193       1.58354497    
   5.00000000       0.00000000      -1.00000000       988.898193       1.58354497    
   4.33012676       2.50000000      -10.0000000       861.044312       1.62825012    
   4.33012676       2.50000000      -9.00000000       861.044312       1.62825012    
   4.57987785       1.89704800      -9.00000000       861.044312       1.62825012    
   4.57987785       1.89704800      -10.0000000       861.044312       1.62825012    
   4.33012676       2.50000000      -9.00000000       1044.77991       1.62403929    
   4.33012676       2.50000000      -8.00000000       1044.77991       1.62403929    
   4.57987785       1.89704800      -8.00000000       1044.77991       1.62403929    
   4.57987785       1.89704800      -9.00000000       1044.77991       1.62403929    
   4.33012676       2.50000000      -8.00000000       1532.63416       1.60992491    
   4.33012676       2.50000000      -7.00000000       1532.63416       1.60992491    
   4.57987785       1.89704800      -7.00000000       1532.63416       1.60992491    
   4.57987785       1.89704800      -8.00000000       1532.63416       1.60992491    
   4.33012676       2.50000000      -7.00000000       2144.94336       1.60045683    
   4.33012676       2.50000000      -6.00000000       2144.94336       1.60045683    
   4.57987785       1.89704800      -6.00000000       2144.94336       1.60045683    
   4.57987785       1.89704800      -7.00000000       2144.94336       1.60045683    
   4.33012676       2.50000000      -6.00000000       2819.49976       1.59452581    
   4.33012676       2.50000000      -5.00000000       2819.49976       1.59452581    
   4.57987785       1.89704800      -5.00000000       2819.49976       1.59452581    
   4.57987785       1.89704800      -6.00000000       2819.49976       1.59452581    
   4.33012676       2.50000000      -5.00000000       3519.82227       1.59067261    
   4.33012676       2.50000000      -4.00000000       3519.82227       1.59067261    
   4.57987785       1.89704800      -4.00000000       3519.82227       1.59067261    
   4.57987785       1.89704800      -5.00000000       3519.82227       1.59067261    
   4.33012676       2.50000000      -4.00000000       4214.77246       1.58809042    
   4.33012676       2.50000000      -3.00000000       4214.77246       1.58809042    
   4.57987785       1.89704800      -3.00000000       4214.77246       1.58809042    
   4.57987785       1.89704800      -4.00000000       4214.77246       1.58809042    
   4.33012676       2.50000000      -3.00000000       4873.98340       1.58633125    
   4.33012676       2.50000000      -2.00000000       4873.98340       1.58633125    
   4.57987785       1.89704800      -2.00000000       4873.98340       1.58633125    
   4.57987785       1.89704800      -3.00000000       4873.98340       1.58633125    
   4.33012676       2.50000000      -2.00000000       5462.63525       1.58516288    
   4.33012676       2.50000000      -1.00000000       5462.63525       1.58516288    
   4.57987785       1.89704800      -1.00000000       5462.63525       1.58516288    
   4.57987785       1.89704800      -2.00000000       5462.63525       1.58516288    
   4.33012676       2.50000000      -1.00000000       5917.39648       1.58451605    
   4.33012676       2.50000000       0.00000000       5917.39648       1.58451605    
   4.57987785       1.89704800       0.00000000       5917.39648       1.58451605    
   4.57987785       1.89704800      -1.00000000       5917.39648       1.58451605    
   4.57987785       1.89704800      -10.0000000       610.167969       1.63052046    
   4.57987785       1.89704800      -9.00000000       610.167969       1.63052046    
   4.82962894       1.29409504      -9.00000000       610.167969       1.63052046    
   4.82962894       1.29409504      -10.0000000       610.167969       1.63052046    
   4.57987785       1.89704800      -9.00000000       756.791382       1.62498426    
   4.57987785       1.89704800      -8.00000000       756.791382       1.62498426    
   4.82962894       1.29409504      -8.00000000       756.791382       1.62498426    
   4.82962894       1.29409504      -9.00000000       756.791382       1.62498426    
   4.57987785       1.89704800      -8.00000000       1130.44214       1.60990596    
   4.57987785       1.89704800      -7.00000000       1130.44214       1.60990596    
   4.82962894       1.29409504      -7.00000000       1130.44214       1.60990596    
   4.82962894       1.29409504      -8.00000000       1130.44214       1.60990596    
   4.57987785       1.89704800      -7.00000000       1595.96033       1.60018623    
   4.57987785       1.89704800      -6.00000000       1595.96033       1.60018623    
   4.82962894       1.29409504      -6.00000000       1595.96033       1.60018623    
   4.82962894       1.29409504      -7.00000000       1595.96033       1.60018623    
   4.57987785       1.89704800      -6.00000000       2107.52515       1.59420097    
   4.57987785       1.89704800      -5.00000000       2107.52515       1.59420097    
   4.82962894       1.29409504      -5.00000000       2107.52515       1.59420097    
   4.82962894       1.29409504      -6.00000000       2107.52515       1.59420097    
   4.57987785       1.89704800      -5.00000000       2638.03979       1.59035027    
   4.57987785       1.89704800      -4.00000000       2638.03979       1.59035027    
   4.82962894       1.29409504      -4.00000000       2638.03979       1.59035027    
   4.82962894       1.29409504      -5.00000000       2638.03979       1.59035027    
   4.57987785       1.89704800      -4.00000000       3164.88086       1.58777595    
   4.57987785       1.89704800      -3.00000000       3164.88086       1.58777595    
   4.82962894       1.29409504      -3.00000000       3164.88086       1.58777595    
   4.82962894       1.29409504      -4.00000000       3164.88086       1.58777595    
   4.57987785       1.89704800      -3.00000000       3665.13696       1.58602738    
   4.57987785       1.89704800      -2.00000000       3665.13696       1.58602738    
   4.82962894       1.29409504      -2.00000000       3665.13696       1.58602738    
   4.82962894       1.29409504      -3.00000000       3665.13696       1.58602738    
   4.57987785       1.89704800      -2.00000000       4113.37354       1.58486378    
   4.57987785       1.89704800      -1.00000000       4113.37354       1.58486378    
   4.82962894       1.29409504      -1.00000000       4113.37354       1.58486378    
   4.82962894       1.29409504      -2.00000000       4113.37354       1.58486378    
   4.57987785       1.89704800      -1.00000000       4461.57227       1.58421063    
   4.57987785       1.89704800       0.00000000       4461.57227       1.58421063    
   4.82962894       1.29409504       0.00000000       4461.57227       1.58421063    
   4.82962894       1.29409504      -1.00000000       4461.57227       1.58421063    
   3.53553391       3.53553391      -10.0000000       1277.89453       1.62864876    
   3.53553391       3.53553391      -9.00000000       1277.89453       1.62864876    
   3.93283010       3.01776695      -9.00000000       1277.89453       1.62864876    
   3.93283010       3.01776695      -10.0000000       1277.89453       1.62864876    
   3.53553391       3.53553391      -9.00000000       1556.59241       1.62420893    
   3.53553391       3.53553391      -8.00000000       1556.59241       1.62420893    
   3.93283010       3.01776695      -8.00000000       1556.59241       1.62420893    
   3.93283010       3.01776695      -9.00000000       1556.59241       1.62420893    
   3.53553391       3.53553391      -8.00000000       2290.85547       1.60992098    
   3.53553391       3.53553391      -7.00000000       2290.85547       1.60992098    
   3.93283010       3.01776695      -7.00000000       2290.85547       1.60992098    
   3.93283010       3.01776695      -8.00000000       2290.85547       1.60992098    
   3.53553391       3.53553391      -7.00000000       3211.16821       1.60040796    
   3.53553391       3.53553391      -6.00000000       3211.16821       1.60040796    
   3.93283010       3.01776695      -6.00000000       3211.16821       1.60040796    
   3.93283010       3.01776695      -7.00000000       3211.16821       1.60040796    
   3.53553391       3.53553391      -6.00000000       4224.56787       1.59446597    
   3.53553391       3.53553391      -5.00000000       4224.56787       1.59446597    
   3.93283010       3.01776695      -5.00000000       4224.56787       1.59446597    
   3.93283010       3.01776695      -6.00000000       4224.56787       1.59446597    
   3.53553391       3.53553391      -5.00000000       5276.47412       1.59061372    
   3.53553391       3.53553391      -4.00000000       5276.47412       1.59061372    
   3.93283010       3.01776695      -4.00000000       5276.47412       1.59061372    
   3.93283010       3.01776695      -5.00000000       5276.47412       1.59061372    
   3.53553391       3.53553391      -4.00000000       6320.43555       1.58803213    
   3.53553391       3.53553391      -3.00000000       6320.43555       1.58803213    
   3.93283010       3.01776695      -3.00000000       6320.43555       1.58803213    
   3.93283010       3.01776695      -4.00000000       6320.43555       1.58803213    
   3.53553391       3.53553391      -3.00000000       7310.92334       1.58627605    
   3.53553391       3.53553391      -2.00000000       7310.92334       1.58627605    
   3.93283010       3.01776695      -2.00000000       7310.92334       1.58627605    
   3.93283010       3.01776695      -3.00000000       7310.92334       1.58627605    
   3.53553391       3.53553391      -2.00000000       8195.94141       1.58510828    
   3.53553391       3.53553391      -1.00000000       8195.94141       1.58510828    
   3.93283010       3.01776695      -1.00000000       8195.94141       1.58510828    
   3.93283010       3.01776695      -2.00000000       8195.94141       1.58510828    
   3.53553391       3.53553391      -1.00000000       8880.34570       1.58446002    
   3.53553391       3.53553391       0.00000000       8880.34570       1.58446002    
   3.93283010       3.01776695       0.00000000       8880.34570       1.58446002    
   3.93283010       3.01776695      -1.00000000       8880.34570       1.58446002    
   3.93283010       3.01776695      -10.0000000       1062.46313       1.62985051    
   3.93283010       3.01776695      -9.00000000       1062.46313       1.62985051    
   4.33012676       2.50000000      -9.00000000       1062.46313       1.62985051    
   4.33012676       2.50000000      -10.0000000       1062.46313       1.62985051    
   3.93283010       3.01776695      -9.00000000       1309.29150       1.62471032    
   3.93283010       3.01776695      -8.00000000       1309.29150       1.62471032    
   4.33012676       2.50000000      -8.00000000       1309.29150       1.62471032    
   4.33012676       2.50000000      -9.00000000       1309.29150       1.62471032    
   3.93283010       3.01776695      -8.00000000       1945.48230       1.60991144    
   3.93283010       3.01776695      -7.00000000       1945.48230       1.60991144    
   4.33012676       2.50000000      -7.00000000       1945.48230       1.60991144    
   4.33012676       2.50000000      -8.00000000       1945.48230       1.60991144    
   3.93283010       3.01776695      -7.00000000       2739.74097       1.60026383    
   3.93283010       3.01776695      -6.00000000       2739.74097       1.60026383    
   4.33012676       2.50000000      -6.00000000       2739.74097       1.60026383    
   4.33012676       2.50000000      -7.00000000       2739.74097       1.60026383    
   3.93283010       3.01776695      -6.00000000       3613.18262       1.59429348    
   3.93283010       3.01776695      -5.00000000       3613.18262       1.59429348    
   4.33012676       2.50000000      -5.00000000       3613.18262       1.59429348    
   4.33012676       2.50000000      -6.00000000       3613.18262       1.59429348    
   3.93283010       3.01776695      -5.00000000       4519.26367       1.59044206    
   3.93283010       3.01776695      -4.00000000       4519.26367       1.59044206    
   4.33012676       2.50000000      -4.00000000       4519.26367       1.59044206    
   4.33012676       2.50000000      -5.00000000       4519.26367       1.59044206    
   3.93283010       3.01776695      -4.00000000       5418.87793       1.58786535    
   3.93283010       3.01776695      -3.00000000       5418.87793       1.58786535    
   4.33012676       2.50000000      -3.00000000       5418.87793       1.58786535    
   4.33012676       2.50000000      -4.00000000       5418.87793       1.58786535    
   3.93283010       3.01776695      -3.00000000       6272.86035       1.58611453    
   3.93283010       3.01776695      -2.00000000       6272.86035       1.58611453    
   4.33012676       2.50000000      -2.00000000       6272.86035       1.58611453    
   4.33012676       2.50000000      -3.00000000       6272.86035       1.58611453    
   3.93283010       3.01776695      -2.00000000       7037.27734       1.58494866    
   3.93283010       3.01776695      -1.00000000       7037.27734       1.58494866    
   4.33012676       2.50000000      -1.00000000       7037.27734       1.58494866    
   4.33012676       2.50000000      -2.00000000       7037.27734       1.58494866    
   3.93283010       3.01776695      -1.00000000       7630.22803       1.58429813    
   3.93283010       3.01776695       0.00000000       7630.22803       1.58429813    
   4.33012676       2.50000000       0.00000000       7630.22803       1.58429813    
   4.33012676       2.50000000      -1.00000000       7630.22803       1.58429813    
   2.50000000       4.33012676      -10.0000000       1607.66101       1.62886024    
   2.50000000       4.33012676      -9.00000000       1607.66101       1.62886024    
   3.01776695       3.93283010      -9.00000000       1607.66101       1.62886024    
   3.01776695       3.93283010      -10.0000000       1607.66101       1.62886024    
   2.50000000       4.33012676      -9.00000000       1962.32751       1.62429869    
   2.50000000       4.33012676      -8.00000000       1962.32751       1.62429869    
   3.01776695       3.93283010      -8.00000000       1962.32751       1.62429869    
   3.01776695       3.93283010      -9.00000000       1962.32751       1.62429869    
   2.50000000       4.33012676      -8.00000000       2892.95654       1.60991859    
   2.50000000       4.33012676      -7.00000000       2892.95654       1.60991859    
   3.01776695       3.93283010      -7.00000000       2892.95654       1.60991859    
   3.01776695       3.93283010      -8.00000000       2892.95654       1.60991859    
   2.50000000       4.33012676      -7.00000000       4058.56006       1.60038161    
   2.50000000       4.33012676      -6.00000000       4058.56006       1.60038161    
   3.01776695       3.93283010      -6.00000000       4058.56006       1.60038161    
   3.01776695       3.93283010      -7.00000000       4058.56006       1.60038161    
   2.50000000       4.33012676      -6.00000000       5341.74854       1.59443474    
   2.50000000       4.33012676      -5.00000000       5341.74854       1.59443474    
   3.01776695       3.93283010      -5.00000000       5341.74854       1.59443474    
   3.01776695       3.93283010      -6.00000000       5341.74854       1.59443474    
   2.50000000       4.33012676      -5.00000000       6673.54541       1.59058285    
   2.50000000       4.33012676      -4.00000000       6673.54541       1.59058285    
   3.01776695       3.93283010      -4.00000000       6673.54541       1.59058285    
   3.01776695       3.93283010      -5.00000000       6673.54541       1.59058285    
   2.50000000       4.33012676      -4.00000000       7995.38770       1.58800185    
   2.50000000       4.33012676      -3.00000000       7995.38770       1.58800185    
   3.01776695       3.93283010      -3.00000000       7995.38770       1.58800185    
   3.01776695       3.93283010      -4.00000000       7995.38770       1.58800185    
   2.50000000       4.33012676      -3.00000000       9249.63770       1.58624661    
   2.50000000       4.33012676      -2.00000000       9249.63770       1.58624661    
   3.01776695       3.93283010      -2.00000000       9249.63770       1.58624661    
   3.01776695       3.93283010      -3.00000000       9249.63770       1.58624661    
   2.50000000       4.33012676      -2.00000000       10370.6875       1.58507943    
   2.50000000       4.33012676      -1.00000000       10370.6875       1.58507943    
   3.01776695       3.93283010      -1.00000000       10370.6875       1.58507943    
   3.01776695       3.93283010      -2.00000000       10370.6875       1.58507943    
   2.50000000       4.33012676      -1.00000000       11238.1328       1.58443058    
   2.50000000       4.33012676       0.00000000       11238.1328       1.58443058    
   3.01776695       3.93283010       0.00000000       11238.1328       1.58443058    
   3.01776695       3.93283010      -1.00000000       11238.1328       1.58443058    
   3.01776695       3.93283010      -10.0000000       1442.35254       1.62956393    
   3.01776695       3.93283010      -9.00000000       1442.35254       1.62956393    
   3.53553391       3.53553391      -9.00000000       1442.35254       1.62956393    
   3.53553391       3.53553391      -10.0000000       1442.35254       1.62956393    
   3.01776695       3.93283010      -9.00000000       1772.56946       1.62459230    
   3.01776695       3.93283010      -8.00000000       1772.56946       1.62459230    
   3.53553391       3.53553391      -8.00000000       1772.56946       1.62459230    
   3.53553391       3.53553391      -9.00000000       1772.56946       1.62459230    
   3.01776695       3.93283010      -8.00000000       2627.94751       1.60991311    
   3.01776695       3.93283010      -7.00000000       2627.94751       1.60991311    
   3.53553391       3.53553391      -7.00000000       2627.94751       1.60991311    
   3.53553391       3.53553391      -8.00000000       2627.94751       1.60991311    
   3.01776695       3.93283010      -7.00000000       3696.82812       1.60029662    
   3.01776695       3.93283010      -6.00000000       3696.82812       1.60029662    
   3.53553391       3.53553391      -6.00000000       3696.82812       1.60029662    
   3.53553391       3.53553391      -7.00000000       3696.82812       1.60029662    
   3.01776695       3.93283010      -6.00000000       4872.61182       1.59433293    
   3.01776695       3.93283010      -5.00000000       4872.61182       1.59433293    
   3.53553391       3.53553391      -5.00000000       4872.61182       1.59433293    
   3.53553391       3.53553391      -6.00000000       4872.61182       1.59433293    
   3.01776695       3.93283010      -5.00000000       6092.51855       1.59048200    
   3.01776695       3.93283010      -4.00000000       6092.51855       1.59048200    
   3.53553391       3.53553391      -4.00000000       6092.51855       1.59048200    
   3.53553391       3.53553391      -5.00000000       6092.51855       1.59048200    
   3.01776695       3.93283010      -4.00000000       7303.59766       1.58790457    
   3.01776695       3.93283010      -3.00000000       7303.59766       1.58790457    
   3.53553391       3.53553391      -3.00000000       7303.59766       1.58790457    
   3.53553391       3.53553391      -4.00000000       7303.59766       1.58790457    
   3.01776695       3.93283010      -3.00000000       8453.09375       1.58615148    
   3.01776695       3.93283010      -2.00000000       8453.09375       1.58615148    
   3.53553391       3.53553391      -2.00000000       8453.09375       1.58615148    
   3.53553391       3.53553391      -3.00000000       8453.09375       1.58615148    
   3.01776695       3.93283010      -2.00000000       9481.64355       1.58498573    
   3.01776695       3.93283010      -1.00000000       9481.64355       1.58498573    
   3.53553391       3.53553391      -1.00000000       9481.64355       1.58498573    
   3.53553391       3.53553391      -2.00000000       9481.64355       1.58498573    
   3.01776695       3.93283010      -1.00000000       10278.8789       1.58433568    
   3.01776695       3.93283010       0.00000000       10278.8789       1.58433568    
   3.53553391       3.53553391       0.00000000       10278.8789       1.58433568    
   3.53553391       3.53553391      -1.00000000       10278.8789       1.58433568    
   1.29409504       4.82962894      -10.0000000       1827.86523       1.62900913    
   1.29409504       4.82962894      -9.00000000       1827.86523       1.62900913    
   1.89704800       4.57987785      -9.00000000       1827.86523       1.62900913    
   1.89704800       4.57987785      -10.0000000       1827.86523       1.62900913    
   1.29409504       4.82962894      -9.00000000       2234.33350       1.62436008    
   1.29409504       4.82962894      -8.00000000       2234.33350       1.62436008    
   1.89704800       4.57987785      -8.00000000       2234.33350       1.62436008    
   1.89704800       4.57987785      -9.00000000       2234.33350       1.62436008    
   1.29409504       4.82962894      -8.00000000       3297.91602       1.60991788    
   1.29409504       4.82962894      -7.00000000       3297.91602       1.60991788    
   1.89704800       4.57987785      -7.00000000       3297.91602       1.60991788    
   1.89704800       4.57987785      -8.00000000       3297.91602       1.60991788    
   1.29409504       4.82962894      -7.00000000       4629.36670       1.60036373    
   1.29409504       4.82962894      -6.00000000       4629.36670       1.60036373    
   1.89704800       4.57987785      -6.00000000       4629.36670       1.60036373    
   1.89704800       4.57987785      -7.00000000       4629.36670       1.60036373    
   1.29409504       4.82962894      -6.00000000       6094.88721       1.59441304    
   1.29409504       4.82962894      -5.00000000       6094.88721       1.59441304    
   1.89704800       4.57987785      -5.00000000       6094.88721       1.59441304    
   1.89704800       4.57987785      -6.00000000       6094.88721       1.59441304    
   1.29409504       4.82962894      -5.00000000       7615.81543       1.59056127    
   1.29409504       4.82962894      -4.00000000       7615.81543       1.59056127    
   1.89704800       4.57987785      -4.00000000       7615.81543       1.59056127    
   1.89704800       4.57987785      -5.00000000       7615.81543       1.59056127    
   1.29409504       4.82962894      -4.00000000       9125.45508       1.58798099    
   1.29409504       4.82962894      -3.00000000       9125.45508       1.58798099    
   1.89704800       4.57987785      -3.00000000       9125.45508       1.58798099    