 VARIABLES="X" "Y" "Z" "abs(p) (Pa)" "angle(p) (rad)"
ZONE N=   1080,E =     600, F=FEPOINT, ET=QUADRILATERAL
   4.82962894       1.29409504      -10.0000000       219.061874      -1.56385887    
   4.82962894       1.29409504      -9.00000000       219.061874      -1.56385887    
   4.91481400      0.647047520      -9.00000000       219.061874      -1.56385887    
   4.91481400      0.647047520      -10.0000000       219.061874      -1.56385887    
   4.82962894       1.29409504      -9.00000000       276.135193      -1.56468761    
   4.82962894       1.29409504      -8.00000000       276.135193      -1.56468761    
   4.91481400      0.647047520      -8.00000000       276.135193      -1.56468761    
   4.91481400      0.647047520      -9.00000000       276.135193      -1.56468761    
   4.82962894       1.29409504      -8.00000000       309.129974      -1.56498110    
   4.82962894       1.29409504      -7.00000000       309.129974      -1.56498110    
   4.91481400      0.647047520      -7.00000000       309.129974      -1.56498110    
   4.91481400      0.647047520      -8.00000000       309.129974      -1.56498110    
   4.82962894       1.29409504      -7.00000000       331.919250      -1.56511605    
   4.82962894       1.29409504      -6.00000000       331.919250      -1.56511605    
   4.91481400      0.647047520      -6.00000000       331.919250      -1.56511605    
   4.91481400      0.647047520      -7.00000000       331.919250      -1.56511605    
   4.82962894       1.29409504      -6.00000000       348.809204      -1.56517637    
   4.82962894       1.29409504      -5.00000000       348.809204      -1.56517637    
   4.91481400      0.647047520      -5.00000000       348.809204      -1.56517637    
   4.91481400      0.647047520      -6.00000000       348.809204      -1.56517637    
   4.82962894       1.29409504      -5.00000000       361.880341      -1.56519628    
   4.82962894       1.29409504      -4.00000000       361.880341      -1.56519628    
   4.91481400      0.647047520      -4.00000000       361.880341      -1.56519628    
   4.91481400      0.647047520      -5.00000000       361.880341      -1.56519628    
   4.82962894       1.29409504      -4.00000000       372.401855      -1.56519127    
   4.82962894       1.29409504      -3.00000000       372.401855      -1.56519127    
   4.91481400      0.647047520      -3.00000000       372.401855      -1.56519127    
   4.91481400      0.647047520      -4.00000000       372.401855      -1.56519127    
   4.82962894       1.29409504      -3.00000000       381.164093      -1.56517375    
   4.82962894       1.29409504      -2.00000000       381.164093      -1.56517375    
   4.91481400      0.647047520      -2.00000000       381.164093      -1.56517375    
   4.91481400      0.647047520      -3.00000000       381.164093      -1.56517375    
   4.82962894       1.29409504      -2.00000000       388.794342      -1.56514943    
   4.82962894       1.29409504      -1.00000000       388.794342      -1.56514943    
   4.91481400      0.647047520      -1.00000000       388.794342      -1.56514943    
   4.91481400      0.647047520      -2.00000000       388.794342      -1.56514943    
   4.82962894       1.29409504      -1.00000000       396.017059      -1.56512749    
   4.82962894       1.29409504       0.00000000       396.017059      -1.56512749    
   4.91481400      0.647047520       0.00000000       396.017059      -1.56512749    
   4.91481400      0.647047520      -1.00000000       396.017059      -1.56512749    
   4.91481400      0.647047520      -10.0000000       86.6621552      -1.56458700    
   4.91481400      0.647047520      -9.00000000       86.6621552      -1.56458700    
   5.00000000       0.00000000      -9.00000000       86.6621552      -1.56458700    
   5.00000000       0.00000000      -10.0000000       86.6621552      -1.56458700    
   4.91481400      0.647047520      -9.00000000       107.507896      -1.56522584    
   4.91481400      0.647047520      -8.00000000       107.507896      -1.56522584    
   5.00000000       0.00000000      -8.00000000       107.507896      -1.56522584    
   5.00000000       0.00000000      -9.00000000       107.507896      -1.56522584    
   4.91481400      0.647047520      -8.00000000       119.273689      -1.56544507    
   4.91481400      0.647047520      -7.00000000       119.273689      -1.56544507    
   5.00000000       0.00000000      -7.00000000       119.273689      -1.56544507    
   5.00000000       0.00000000      -8.00000000       119.273689      -1.56544507    
   4.91481400      0.647047520      -7.00000000       127.399635      -1.56554103    
   4.91481400      0.647047520      -6.00000000       127.399635      -1.56554103    
   5.00000000       0.00000000      -6.00000000       127.399635      -1.56554103    
   5.00000000       0.00000000      -7.00000000       127.399635      -1.56554103    
   4.91481400      0.647047520      -6.00000000       133.404922      -1.56557620    
   4.91481400      0.647047520      -5.00000000       133.404922      -1.56557620    
   5.00000000       0.00000000      -5.00000000       133.404922      -1.56557620    
   5.00000000       0.00000000      -6.00000000       133.404922      -1.56557620    
   4.91481400      0.647047520      -5.00000000       138.065933      -1.56558037    
   4.91481400      0.647047520      -4.00000000       138.065933      -1.56558037    
   5.00000000       0.00000000      -4.00000000       138.065933      -1.56558037    
   5.00000000       0.00000000      -5.00000000       138.065933      -1.56558037    
   4.91481400      0.647047520      -4.00000000       141.814178      -1.56556726    
   4.91481400      0.647047520      -3.00000000       141.814178      -1.56556726    
   5.00000000       0.00000000      -3.00000000       141.814178      -1.56556726    
   5.00000000       0.00000000      -4.00000000       141.814178      -1.56556726    
   4.91481400      0.647047520      -3.00000000       144.930969      -1.56554711    
   4.91481400      0.647047520      -2.00000000       144.930969      -1.56554711    
   5.00000000       0.00000000      -2.00000000       144.930969      -1.56554711    
   5.00000000       0.00000000      -3.00000000       144.930969      -1.56554711    
   4.91481400      0.647047520      -2.00000000       147.646332      -1.56551206    
   4.91481400      0.647047520      -1.00000000       147.646332      -1.56551206    
   5.00000000       0.00000000      -1.00000000       147.646332      -1.56551206    
   5.00000000       0.00000000      -2.00000000       147.646332      -1.56551206    
   4.91481400      0.647047520      -1.00000000       150.118286      -1.56548750    
   4.91481400      0.647047520       0.00000000       150.118286      -1.56548750    
   5.00000000       0.00000000       0.00000000       150.118286      -1.56548750    
   5.00000000       0.00000000      -1.00000000       150.118286      -1.56548750    
   4.33012676       2.50000000      -10.0000000       509.856171      -1.56398237    
   4.33012676       2.50000000      -9.00000000       509.856171      -1.56398237    
   4.57987785       1.89704800      -9.00000000       509.856171      -1.56398237    
   4.57987785       1.89704800      -10.0000000       509.856171      -1.56398237    
   4.33012676       2.50000000      -9.00000000       640.960693      -1.56477797    
   4.33012676       2.50000000      -8.00000000       640.960693      -1.56477797    
   4.57987785       1.89704800      -8.00000000       640.960693      -1.56477797    
   4.57987785       1.89704800      -9.00000000       640.960693      -1.56477797    
   4.33012676       2.50000000      -8.00000000       716.466736      -1.56505883    
   4.33012676       2.50000000      -7.00000000       716.466736      -1.56505883    
   4.57987785       1.89704800      -7.00000000       716.466736      -1.56505883    
   4.57987785       1.89704800      -8.00000000       716.466736      -1.56505883    
   4.33012676       2.50000000      -7.00000000       768.618286      -1.56518590    
   4.33012676       2.50000000      -6.00000000       768.618286      -1.56518590    
   4.57987785       1.89704800      -6.00000000       768.618286      -1.56518590    
   4.57987785       1.89704800      -7.00000000       768.618286      -1.56518590    
   4.33012676       2.50000000      -6.00000000       807.256165      -1.56524289    
   4.33012676       2.50000000      -5.00000000       807.256165      -1.56524289    
   4.57987785       1.89704800      -5.00000000       807.256165      -1.56524289    
   4.57987785       1.89704800      -6.00000000       807.256165      -1.56524289    
   4.33012676       2.50000000      -5.00000000       837.166748      -1.56525993    
   4.33012676       2.50000000      -4.00000000       837.166748      -1.56525993    
   4.57987785       1.89704800      -4.00000000       837.166748      -1.56525993    
   4.57987785       1.89704800      -5.00000000       837.166748      -1.56525993    
   4.33012676       2.50000000      -4.00000000       861.238953      -1.56525409    
   4.33012676       2.50000000      -3.00000000       861.238953      -1.56525409    
   4.57987785       1.89704800      -3.00000000       861.238953      -1.56525409    
   4.57987785       1.89704800      -4.00000000       861.238953      -1.56525409    
   4.33012676       2.50000000      -3.00000000       881.283569      -1.56523430    
   4.33012676       2.50000000      -2.00000000       881.283569      -1.56523430    
   4.57987785       1.89704800      -2.00000000       881.283569      -1.56523430    
   4.57987785       1.89704800      -3.00000000       881.283569      -1.56523430    
   4.33012676       2.50000000      -2.00000000       898.742554      -1.56520915    
   4.33012676       2.50000000      -1.00000000       898.742554      -1.56520915    
   4.57987785       1.89704800      -1.00000000       898.742554      -1.56520915    
   4.57987785       1.89704800      -2.00000000       898.742554      -1.56520915    
   4.33012676       2.50000000      -1.00000000       915.162537      -1.56518638    
   4.33012676       2.50000000       0.00000000       915.162537      -1.56518638    
   4.57987785       1.89704800       0.00000000       915.162537      -1.56518638    
   4.57987785       1.89704800      -1.00000000       915.162537      -1.56518638    
   4.57987785       1.89704800      -10.0000000       386.480499      -1.56417322    
   4.57987785       1.89704800      -9.00000000       386.480499      -1.56417322    
   4.82962894       1.29409504      -9.00000000       386.480499      -1.56417322    
   4.82962894       1.29409504      -10.0000000       386.480499      -1.56417322    
   4.57987785       1.89704800      -9.00000000       483.825226      -1.56491899    
   4.57987785       1.89704800      -8.00000000       483.825226      -1.56491899    
   4.82962894       1.29409504      -8.00000000       483.825226      -1.56491899    
   4.82962894       1.29409504      -9.00000000       483.825226      -1.56491899    
   4.57987785       1.89704800      -8.00000000       539.548279      -1.56517875    
   4.57987785       1.89704800      -7.00000000       539.548279      -1.56517875    
   4.82962894       1.29409504      -7.00000000       539.548279      -1.56517875    
   4.82962894       1.29409504      -8.00000000       539.548279      -1.56517875    
   4.57987785       1.89704800      -7.00000000       578.038757      -1.56529546    
   4.57987785       1.89704800      -6.00000000       578.038757      -1.56529546    
   4.82962894       1.29409504      -6.00000000       578.038757      -1.56529546    
   4.82962894       1.29409504      -7.00000000       578.038757      -1.56529546    
   4.57987785       1.89704800      -6.00000000       606.532715      -1.56534696    
   4.57987785       1.89704800      -5.00000000       606.532715      -1.56534696    
   4.82962894       1.29409504      -5.00000000       606.532715      -1.56534696    
   4.82962894       1.29409504      -6.00000000       606.532715      -1.56534696    
   4.57987785       1.89704800      -5.00000000       628.605347      -1.56536043    
   4.57987785       1.89704800      -4.00000000       628.605347      -1.56536043    
   4.82962894       1.29409504      -4.00000000       628.605347      -1.56536043    
   4.82962894       1.29409504      -5.00000000       628.605347      -1.56536043    
   4.57987785       1.89704800      -4.00000000       646.369690      -1.56535125    
   4.57987785       1.89704800      -3.00000000       646.369690      -1.56535125    
   4.82962894       1.29409504      -3.00000000       646.369690      -1.56535125    
   4.82962894       1.29409504      -4.00000000       646.369690      -1.56535125    
   4.57987785       1.89704800      -3.00000000       661.147644      -1.56533039    
   4.57987785       1.89704800      -2.00000000       661.147644      -1.56533039    
   4.82962894       1.29409504      -2.00000000       661.147644      -1.56533039    
   4.82962894       1.29409504      -3.00000000       661.147644      -1.56533039    
   4.57987785       1.89704800      -2.00000000       674.026917      -1.56530392    
   4.57987785       1.89704800      -1.00000000       674.026917      -1.56530392    
   4.82962894       1.29409504      -1.00000000       674.026917      -1.56530392    
   4.82962894       1.29409504      -2.00000000       674.026917      -1.56530392    
   4.57987785       1.89704800      -1.00000000       686.024414      -1.56527853    
   4.57987785       1.89704800       0.00000000       686.024414      -1.56527853    
   4.82962894       1.29409504       0.00000000       686.024414      -1.56527853    
   4.82962894       1.29409504      -1.00000000       686.024414      -1.56527853    
   3.53553391       3.53553391      -10.0000000       765.907288      -1.56401742    
   3.53553391       3.53553391      -9.00000000       765.907288      -1.56401742    
   3.93283010       3.01776695      -9.00000000       765.907288      -1.56401742    
   3.93283010       3.01776695      -10.0000000       765.907288      -1.56401742    
   3.53553391       3.53553391      -9.00000000       962.104553      -1.56480420    
   3.53553391       3.53553391      -8.00000000       962.104553      -1.56480420    
   3.93283010       3.01776695      -8.00000000       962.104553      -1.56480420    
   3.93283010       3.01776695      -9.00000000       962.104553      -1.56480420    
   3.53553391       3.53553391      -8.00000000       1074.97839      -1.56508076    
   3.53553391       3.53553391      -7.00000000       1074.97839      -1.56508076    
   3.93283010       3.01776695      -7.00000000       1074.97839      -1.56508076    
   3.93283010       3.01776695      -8.00000000       1074.97839      -1.56508076    
   3.53553391       3.53553391      -7.00000000       1152.93860      -1.56520677    
   3.53553391       3.53553391      -6.00000000       1152.93860      -1.56520677    
   3.93283010       3.01776695      -6.00000000       1152.93860      -1.56520677    
   3.93283010       3.01776695      -7.00000000       1152.93860      -1.56520677    
   3.53553391       3.53553391      -6.00000000       1210.68982      -1.56526208    
   3.53553391       3.53553391      -5.00000000       1210.68982      -1.56526208    
   3.93283010       3.01776695      -5.00000000       1210.68982      -1.56526208    
   3.93283010       3.01776695      -6.00000000       1210.68982      -1.56526208    
   3.53553391       3.53553391      -5.00000000       1255.39978      -1.56527817    
   3.53553391       3.53553391      -4.00000000       1255.39978      -1.56527817    
   3.93283010       3.01776695      -4.00000000       1255.39978      -1.56527817    
   3.93283010       3.01776695      -5.00000000       1255.39978      -1.56527817    
   3.53553391       3.53553391      -4.00000000       1291.38745      -1.56527162    
   3.53553391       3.53553391      -3.00000000       1291.38745      -1.56527162    
   3.93283010       3.01776695      -3.00000000       1291.38745      -1.56527162    
   3.93283010       3.01776695      -4.00000000       1291.38745      -1.56527162    
   3.53553391       3.53553391      -3.00000000       1321.34509      -1.56525195    
   3.53553391       3.53553391      -2.00000000       1321.34509      -1.56525195    
   3.93283010       3.01776695      -2.00000000       1321.34509      -1.56525195    
   3.93283010       3.01776695      -3.00000000       1321.34509      -1.56525195    
   3.53553391       3.53553391      -2.00000000       1347.44202      -1.56522679    
   3.53553391       3.53553391      -1.00000000       1347.44202      -1.56522679    
   3.93283010       3.01776695      -1.00000000       1347.44202      -1.56522679    
   3.93283010       3.01776695      -2.00000000       1347.44202      -1.56522679    
   3.53553391       3.53553391      -1.00000000       1371.94397      -1.56520379    
   3.53553391       3.53553391       0.00000000       1371.94397      -1.56520379    
   3.93283010       3.01776695       0.00000000       1371.94397      -1.56520379    
   3.93283010       3.01776695      -1.00000000       1371.94397      -1.56520379    
   3.93283010       3.01776695      -10.0000000       659.961060      -1.56411982    
   3.93283010       3.01776695      -9.00000000       659.961060      -1.56411982    
   4.33012676       2.50000000      -9.00000000       659.961060      -1.56411982    
   4.33012676       2.50000000      -10.0000000       659.961060      -1.56411982    
   3.93283010       3.01776695      -9.00000000       827.169739      -1.56487954    
   3.93283010       3.01776695      -8.00000000       827.169739      -1.56487954    
   4.33012676       2.50000000      -8.00000000       827.169739      -1.56487954    
   4.33012676       2.50000000      -9.00000000       827.169739      -1.56487954    
   3.93283010       3.01776695      -8.00000000       923.056763      -1.56514478    
   3.93283010       3.01776695      -7.00000000       923.056763      -1.56514478    
   4.33012676       2.50000000      -7.00000000       923.056763      -1.56514478    
   4.33012676       2.50000000      -8.00000000       923.056763      -1.56514478    
   3.93283010       3.01776695      -7.00000000       989.281799      -1.56526577    
   3.93283010       3.01776695      -6.00000000       989.281799      -1.56526577    
   4.33012676       2.50000000      -6.00000000       989.281799      -1.56526577    
   4.33012676       2.50000000      -7.00000000       989.281799      -1.56526577    
   3.93283010       3.01776695      -6.00000000       1038.32446      -1.56531739    
   3.93283010       3.01776695      -5.00000000       1038.32446      -1.56531739    
   4.33012676       2.50000000      -5.00000000       1038.32446      -1.56531739    
   4.33012676       2.50000000      -6.00000000       1038.32446      -1.56531739    
   3.93283010       3.01776695      -5.00000000       1076.30530      -1.56533146    
   3.93283010       3.01776695      -4.00000000       1076.30530      -1.56533146    
   4.33012676       2.50000000      -4.00000000       1076.30530      -1.56533146    
   4.33012676       2.50000000      -5.00000000       1076.30530      -1.56533146    
   3.93283010       3.01776695      -4.00000000       1106.87256      -1.56532347    
   3.93283010       3.01776695      -3.00000000       1106.87256      -1.56532347    
   4.33012676       2.50000000      -3.00000000       1106.87256      -1.56532347    
   4.33012676       2.50000000      -4.00000000       1106.87256      -1.56532347    
   3.93283010       3.01776695      -3.00000000       1132.31079      -1.56530285    
   3.93283010       3.01776695      -2.00000000       1132.31079      -1.56530285    
   4.33012676       2.50000000      -2.00000000       1132.31079      -1.56530285    
   4.33012676       2.50000000      -3.00000000       1132.31079      -1.56530285    
   3.93283010       3.01776695      -2.00000000       1154.47644      -1.56527662    
   3.93283010       3.01776695      -1.00000000       1154.47644      -1.56527662    
   4.33012676       2.50000000      -1.00000000       1154.47644      -1.56527662    
   4.33012676       2.50000000      -2.00000000       1154.47644      -1.56527662    
   3.93283010       3.01776695      -1.00000000       1175.17664      -1.56525290    
   3.93283010       3.01776695       0.00000000       1175.17664      -1.56525290    
   4.33012676       2.50000000       0.00000000       1175.17664      -1.56525290    
   4.33012676       2.50000000      -1.00000000       1175.17664      -1.56525290    
   2.50000000       4.33012676      -10.0000000       969.761658      -1.56403577    
   2.50000000       4.33012676      -9.00000000       969.761658      -1.56403577    
   3.01776695       3.93283010      -9.00000000       969.761658      -1.56403577    
   3.01776695       3.93283010      -10.0000000       969.761658      -1.56403577    
   2.50000000       4.33012676      -9.00000000       1217.68372      -1.56481779    
   2.50000000       4.33012676      -8.00000000       1217.68372      -1.56481779    
   3.01776695       3.93283010      -8.00000000       1217.68372      -1.56481779    
   3.01776695       3.93283010      -9.00000000       1217.68372      -1.56481779    
   2.50000000       4.33012676      -8.00000000       1360.23169      -1.56509268    
   2.50000000       4.33012676      -7.00000000       1360.23169      -1.56509268    
   3.01776695       3.93283010      -7.00000000       1360.23169      -1.56509268    
   3.01776695       3.93283010      -8.00000000       1360.23169      -1.56509268    
   2.50000000       4.33012676      -7.00000000       1458.68628      -1.56521726    
   2.50000000       4.33012676      -6.00000000       1458.68628      -1.56521726    
   3.01776695       3.93283010      -6.00000000       1458.68628      -1.56521726    
   3.01776695       3.93283010      -7.00000000       1458.68628      -1.56521726    
   2.50000000       4.33012676      -6.00000000       1531.61572      -1.56527209    
   2.50000000       4.33012676      -5.00000000       1531.61572      -1.56527209    
   3.01776695       3.93283010      -5.00000000       1531.61572      -1.56527209    
   3.01776695       3.93283010      -6.00000000       1531.61572      -1.56527209    
   2.50000000       4.33012676      -5.00000000       1588.08301      -1.56528807    
   2.50000000       4.33012676      -4.00000000       1588.08301      -1.56528807    
   3.01776695       3.93283010      -4.00000000       1588.08301      -1.56528807    
   3.01776695       3.93283010      -5.00000000       1588.08301      -1.56528807    
   2.50000000       4.33012676      -4.00000000       1633.52710      -1.56528103    
   2.50000000       4.33012676      -3.00000000       1633.52710      -1.56528103    
   3.01776695       3.93283010      -3.00000000       1633.52710      -1.56528103    
   3.01776695       3.93283010      -4.00000000       1633.52710      -1.56528103    
   2.50000000       4.33012676      -3.00000000       1671.35986      -1.56526113    
   2.50000000       4.33012676      -2.00000000       1671.35986      -1.56526113    
   3.01776695       3.93283010      -2.00000000       1671.35986      -1.56526113    
   3.01776695       3.93283010      -3.00000000       1671.35986      -1.56526113    
   2.50000000       4.33012676      -2.00000000       1704.31555      -1.56523550    
   2.50000000       4.33012676      -1.00000000       1704.31555      -1.56523550    
   3.01776695       3.93283010      -1.00000000       1704.31555      -1.56523550    
   3.01776695       3.93283010      -2.00000000       1704.31555      -1.56523550    
   2.50000000       4.33012676      -1.00000000       1735.23035      -1.56521285    
   2.50000000       4.33012676       0.00000000       1735.23035      -1.56521285    
   3.01776695       3.93283010       0.00000000       1735.23035      -1.56521285    
   3.01776695       3.93283010      -1.00000000       1735.23035      -1.56521285    
   3.01776695       3.93283010      -10.0000000       888.468079      -1.56409562    
   3.01776695       3.93283010      -9.00000000       888.468079      -1.56409562    
   3.53553391       3.53553391      -9.00000000       888.468079      -1.56409562    
   3.53553391       3.53553391      -10.0000000       888.468079      -1.56409562    
   3.01776695       3.93283010      -9.00000000       1114.14417      -1.56486177    
   3.01776695       3.93283010      -8.00000000       1114.14417      -1.56486177    
   3.53553391       3.53553391      -8.00000000       1114.14417      -1.56486177    
   3.53553391       3.53553391      -9.00000000       1114.14417      -1.56486177    
   3.01776695       3.93283010      -8.00000000       1243.65515      -1.56513023    
   3.01776695       3.93283010      -7.00000000       1243.65515      -1.56513023    
   3.53553391       3.53553391      -7.00000000       1243.65515      -1.56513023    
   3.53553391       3.53553391      -8.00000000       1243.65515      -1.56513023    
   3.01776695       3.93283010      -7.00000000       1333.10876      -1.56525159    
   3.01776695       3.93283010      -6.00000000       1333.10876      -1.56525159    
   3.53553391       3.53553391      -6.00000000       1333.10876      -1.56525159    
   3.53553391       3.53553391      -7.00000000       1333.10876      -1.56525159    
   3.01776695       3.93283010      -6.00000000       1399.35583      -1.56530499    
   3.01776695       3.93283010      -5.00000000       1399.35583      -1.56530499    
   3.53553391       3.53553391      -5.00000000       1399.35583      -1.56530499    
   3.53553391       3.53553391      -6.00000000       1399.35583      -1.56530499    
   3.01776695       3.93283010      -5.00000000       1450.65710      -1.56531906    
   3.01776695       3.93283010      -4.00000000       1450.65710      -1.56531906    
   3.53553391       3.53553391      -4.00000000       1450.65710      -1.56531906    
   3.53553391       3.53553391      -5.00000000       1450.65710      -1.56531906    
   3.01776695       3.93283010      -4.00000000       1491.94531      -1.56531143    
   3.01776695       3.93283010      -3.00000000       1491.94531      -1.56531143    
   3.53553391       3.53553391      -3.00000000       1491.94531      -1.56531143    
   3.53553391       3.53553391      -4.00000000       1491.94531      -1.56531143    
   3.01776695       3.93283010      -3.00000000       1526.30676      -1.56529117    
   3.01776695       3.93283010      -2.00000000       1526.30676      -1.56529117    
   3.53553391       3.53553391      -2.00000000       1526.30676      -1.56529117    
   3.53553391       3.53553391      -3.00000000       1526.30676      -1.56529117    
   3.01776695       3.93283010      -2.00000000       1556.24780      -1.56526494    
   3.01776695       3.93283010      -1.00000000       1556.24780      -1.56526494    
   3.53553391       3.53553391      -1.00000000       1556.24780      -1.56526494    
   3.53553391       3.53553391      -2.00000000       1556.24780      -1.56526494    
   3.01776695       3.93283010      -1.00000000       1584.24500      -1.56524181    
   3.01776695       3.93283010       0.00000000       1584.24500      -1.56524181    
   3.53553391       3.53553391       0.00000000       1584.24500      -1.56524181    
   3.53553391       3.53553391      -1.00000000       1584.24500      -1.56524181    
   1.29409504       4.82962894      -10.0000000       1107.52832      -1.56404865    
   1.29409504       4.82962894      -9.00000000       1107.52832      -1.56404865    
   1.89704800       4.57987785      -9.00000000       1107.52832      -1.56404865    
   1.89704800       4.57987785      -10.0000000       1107.52832      -1.56404865    
   1.29409504       4.82962894      -9.00000000       1390.27991      -1.56482708    
   1.29409504       4.82962894      -8.00000000       1390.27991      -1.56482708    
   1.89704800       4.57987785      -8.00000000       1390.27991      -1.56482708    
   1.89704800       4.57987785      -9.00000000       1390.27991      -1.56482708    
   1.29409504       4.82962894      -8.00000000       1552.78491      -1.56510091    
   1.29409504       4.82962894      -7.00000000       1552.78491      -1.56510091    
   1.89704800       4.57987785      -7.00000000       1552.78491      -1.56510091    
   1.89704800       4.57987785      -8.00000000       1552.78491      -1.56510091    
   1.29409504       4.82962894      -7.00000000       1665.02856      -1.56522453    
   1.29409504       4.82962894      -6.00000000       1665.02856      -1.56522453    
   1.89704800       4.57987785      -6.00000000       1665.02856      -1.56522453    
   1.89704800       4.57987785      -7.00000000       1665.02856      -1.56522453    
   1.29409504       4.82962894      -6.00000000       1748.16565      -1.56527901    
   1.29409504       4.82962894      -5.00000000       1748.16565      -1.56527901    
   1.89704800       4.57987785      -5.00000000       1748.16565      -1.56527901    
   1.89704800       4.57987785      -6.00000000       1748.16565      -1.56527901    
   1.29409504       4.82962894      -5.00000000       1812.53906      -1.56529486    
   1.29409504       4.82962894      -4.00000000       1812.53906      -1.56529486    
   1.89704800       4.57987785      -4.00000000       1812.53906      -1.56529486    
   1.89704800       4.57987785      -5.00000000       1812.53906      -1.56529486    
   1.29409504       4.82962894      -4.00000000       1864.34509      -1.56528747    
   1.29409504       4.82962894      -3.00000000       1864.34509      -1.56528747    
   1.89704800       4.57987785      -3.00000000       1864.34509      -1.56528747    