 VARIABLES="X" "Y" "Z" "abs(p) (Pa)" "angle(p) (rad)"
ZONE N=   1080,E =     600, F=FEPOINT, ET=QUADRILATERAL
   4.82962894       1.29409504      -10.0000000       135.396622       1.57079625    
   4.82962894       1.29409504      -9.00000000       135.396622       1.57079625    
   4.91481400      0.647047520      -9.00000000       135.396622       1.57079625    
   4.91481400      0.647047520      -10.0000000       135.396622       1.57079625    
   4.82962894       1.29409504      -9.00000000       138.464951       1.57079625    
   4.82962894       1.29409504      -8.00000000       138.464951       1.57079625    
   4.91481400      0.647047520      -8.00000000       138.464951       1.57079625    
   4.91481400      0.647047520      -9.00000000       138.464951       1.57079625    
   4.82962894       1.29409504      -8.00000000       138.482010       1.57079625    
   4.82962894       1.29409504      -7.00000000       138.482010       1.57079625    
   4.91481400      0.647047520      -7.00000000       138.482010       1.57079625    
   4.91481400      0.647047520      -8.00000000       138.482010       1.57079625    
   4.82962894       1.29409504      -7.00000000       138.504837       1.57079613    
   4.82962894       1.29409504      -6.00000000       138.504837       1.57079613    
   4.91481400      0.647047520      -6.00000000       138.504837       1.57079613    
   4.91481400      0.647047520      -7.00000000       138.504837       1.57079613    
   4.82962894       1.29409504      -6.00000000       138.451736       1.57079649    
   4.82962894       1.29409504      -5.00000000       138.451736       1.57079649    
   4.91481400      0.647047520      -5.00000000       138.451736       1.57079649    
   4.91481400      0.647047520      -6.00000000       138.451736       1.57079649    
   4.82962894       1.29409504      -5.00000000       138.451492       1.57079637    
   4.82962894       1.29409504      -4.00000000       138.451492       1.57079637    
   4.91481400      0.647047520      -4.00000000       138.451492       1.57079637    
   4.91481400      0.647047520      -5.00000000       138.451492       1.57079637    
   4.82962894       1.29409504      -4.00000000       138.558502       1.57079637    
   4.82962894       1.29409504      -3.00000000       138.558502       1.57079637    
   4.91481400      0.647047520      -3.00000000       138.558502       1.57079637    
   4.91481400      0.647047520      -4.00000000       138.558502       1.57079637    
   4.82962894       1.29409504      -3.00000000       138.513184       1.57079613    
   4.82962894       1.29409504      -2.00000000       138.513184       1.57079613    
   4.91481400      0.647047520      -2.00000000       138.513184       1.57079613    
   4.91481400      0.647047520      -3.00000000       138.513184       1.57079613    
   4.82962894       1.29409504      -2.00000000       138.538773       1.57079625    
   4.82962894       1.29409504      -1.00000000       138.538773       1.57079625    
   4.91481400      0.647047520      -1.00000000       138.538773       1.57079625    
   4.91481400      0.647047520      -2.00000000       138.538773       1.57079625    
   4.82962894       1.29409504      -1.00000000       138.132462       1.57079601    
   4.82962894       1.29409504       0.00000000       138.132462       1.57079601    
   4.91481400      0.647047520       0.00000000       138.132462       1.57079601    
   4.91481400      0.647047520      -1.00000000       138.132462       1.57079601    
   4.91481400      0.647047520      -10.0000000       135.398941      -1.57079637    
   4.91481400      0.647047520      -9.00000000       135.398941      -1.57079637    
   5.00000000       0.00000000      -9.00000000       135.398941      -1.57079637    
   5.00000000       0.00000000      -10.0000000       135.398941      -1.57079637    
   4.91481400      0.647047520      -9.00000000       138.467529      -1.57079637    
   4.91481400      0.647047520      -8.00000000       138.467529      -1.57079637    
   5.00000000       0.00000000      -8.00000000       138.467529      -1.57079637    
   5.00000000       0.00000000      -9.00000000       138.467529      -1.57079637    
   4.91481400      0.647047520      -8.00000000       138.484390      -1.57079637    
   4.91481400      0.647047520      -7.00000000       138.484390      -1.57079637    
   5.00000000       0.00000000      -7.00000000       138.484390      -1.57079637    
   5.00000000       0.00000000      -8.00000000       138.484390      -1.57079637    
   4.91481400      0.647047520      -7.00000000       138.507370      -1.57079649    
   4.91481400      0.647047520      -6.00000000       138.507370      -1.57079649    
   5.00000000       0.00000000      -6.00000000       138.507370      -1.57079649    
   5.00000000       0.00000000      -7.00000000       138.507370      -1.57079649    
   4.91481400      0.647047520      -6.00000000       138.454391      -1.57079589    
   4.91481400      0.647047520      -5.00000000       138.454391      -1.57079589    
   5.00000000       0.00000000      -5.00000000       138.454391      -1.57079589    
   5.00000000       0.00000000      -6.00000000       138.454391      -1.57079589    
   4.91481400      0.647047520      -5.00000000       138.454330      -1.57079613    
   4.91481400      0.647047520      -4.00000000       138.454330      -1.57079613    
   5.00000000       0.00000000      -4.00000000       138.454330      -1.57079613    
   5.00000000       0.00000000      -5.00000000       138.454330      -1.57079613    
   4.91481400      0.647047520      -4.00000000       138.561157      -1.57079613    
   4.91481400      0.647047520      -3.00000000       138.561157      -1.57079613    
   5.00000000       0.00000000      -3.00000000       138.561157      -1.57079613    
   5.00000000       0.00000000      -4.00000000       138.561157      -1.57079613    
   4.91481400      0.647047520      -3.00000000       138.515686      -1.57079506    
   4.91481400      0.647047520      -2.00000000       138.515686      -1.57079506    
   5.00000000       0.00000000      -2.00000000       138.515686      -1.57079506    
   5.00000000       0.00000000      -3.00000000       138.515686      -1.57079506    
   4.91481400      0.647047520      -2.00000000       138.541183      -1.57079589    
   4.91481400      0.647047520      -1.00000000       138.541183      -1.57079589    
   5.00000000       0.00000000      -1.00000000       138.541183      -1.57079589    
   5.00000000       0.00000000      -2.00000000       138.541183      -1.57079589    
   4.91481400      0.647047520      -1.00000000       138.134598      -1.57079625    
   4.91481400      0.647047520       0.00000000       138.134598      -1.57079625    
   5.00000000       0.00000000       0.00000000       138.134598      -1.57079625    
   5.00000000       0.00000000      -1.00000000       138.134598      -1.57079625    
   4.33012676       2.50000000      -10.0000000       135.398285       1.57079625    
   4.33012676       2.50000000      -9.00000000       135.398285       1.57079625    
   4.57987785       1.89704800      -9.00000000       135.398285       1.57079625    
   4.57987785       1.89704800      -10.0000000       135.398285       1.57079625    
   4.33012676       2.50000000      -9.00000000       138.466858       1.57079625    
   4.33012676       2.50000000      -8.00000000       138.466858       1.57079625    
   4.57987785       1.89704800      -8.00000000       138.466858       1.57079625    
   4.57987785       1.89704800      -9.00000000       138.466858       1.57079625    
   4.33012676       2.50000000      -8.00000000       138.483948       1.57079601    
   4.33012676       2.50000000      -7.00000000       138.483948       1.57079601    
   4.57987785       1.89704800      -7.00000000       138.483948       1.57079601    
   4.57987785       1.89704800      -8.00000000       138.483948       1.57079601    
   4.33012676       2.50000000      -7.00000000       138.506653       1.57079625    
   4.33012676       2.50000000      -6.00000000       138.506653       1.57079625    
   4.57987785       1.89704800      -6.00000000       138.506653       1.57079625    
   4.57987785       1.89704800      -7.00000000       138.506653       1.57079625    
   4.33012676       2.50000000      -6.00000000       138.453644       1.57079625    
   4.33012676       2.50000000      -5.00000000       138.453644       1.57079625    
   4.57987785       1.89704800      -5.00000000       138.453644       1.57079625    
   4.57987785       1.89704800      -6.00000000       138.453644       1.57079625    
   4.33012676       2.50000000      -5.00000000       138.453125       1.57079637    
   4.33012676       2.50000000      -4.00000000       138.453125       1.57079637    
   4.57987785       1.89704800      -4.00000000       138.453125       1.57079637    
   4.57987785       1.89704800      -5.00000000       138.453125       1.57079637    
   4.33012676       2.50000000      -4.00000000       138.560303       1.57079625    
   4.33012676       2.50000000      -3.00000000       138.560303       1.57079625    
   4.57987785       1.89704800      -3.00000000       138.560303       1.57079625    
   4.57987785       1.89704800      -4.00000000       138.560303       1.57079625    
   4.33012676       2.50000000      -3.00000000       138.515076       1.57079566    
   4.33012676       2.50000000      -2.00000000       138.515076       1.57079566    
   4.57987785       1.89704800      -2.00000000       138.515076       1.57079566    
   4.57987785       1.89704800      -3.00000000       138.515076       1.57079566    
   4.33012676       2.50000000      -2.00000000       138.540588       1.57079577    
   4.33012676       2.50000000      -1.00000000       138.540588       1.57079577    
   4.57987785       1.89704800      -1.00000000       138.540588       1.57079577    
   4.57987785       1.89704800      -2.00000000       138.540588       1.57079577    
   4.33012676       2.50000000      -1.00000000       138.133713       1.57079577    
   4.33012676       2.50000000       0.00000000       138.133713       1.57079577    
   4.57987785       1.89704800       0.00000000       138.133713       1.57079577    
   4.57987785       1.89704800      -1.00000000       138.133713       1.57079577    
   4.57987785       1.89704800      -10.0000000       135.398987      -1.57079625    
   4.57987785       1.89704800      -9.00000000       135.398987      -1.57079625    
   4.82962894       1.29409504      -9.00000000       135.398987      -1.57079625    
   4.82962894       1.29409504      -10.0000000       135.398987      -1.57079625    
   4.57987785       1.89704800      -9.00000000       138.467422      -1.57079637    
   4.57987785       1.89704800      -8.00000000       138.467422      -1.57079637    
   4.82962894       1.29409504      -8.00000000       138.467422      -1.57079637    
   4.82962894       1.29409504      -9.00000000       138.467422      -1.57079637    
   4.57987785       1.89704800      -8.00000000       138.484604      -1.57079613    
   4.57987785       1.89704800      -7.00000000       138.484604      -1.57079613    
   4.82962894       1.29409504      -7.00000000       138.484604      -1.57079613    
   4.82962894       1.29409504      -8.00000000       138.484604      -1.57079613    
   4.57987785       1.89704800      -7.00000000       138.507233      -1.57079625    
   4.57987785       1.89704800      -6.00000000       138.507233      -1.57079625    
   4.82962894       1.29409504      -6.00000000       138.507233      -1.57079625    
   4.82962894       1.29409504      -7.00000000       138.507233      -1.57079625    
   4.57987785       1.89704800      -6.00000000       138.454391      -1.57079601    
   4.57987785       1.89704800      -5.00000000       138.454391      -1.57079601    
   4.82962894       1.29409504      -5.00000000       138.454391      -1.57079601    
   4.82962894       1.29409504      -6.00000000       138.454391      -1.57079601    
   4.57987785       1.89704800      -5.00000000       138.454453      -1.57079613    
   4.57987785       1.89704800      -4.00000000       138.454453      -1.57079613    
   4.82962894       1.29409504      -4.00000000       138.454453      -1.57079613    
   4.82962894       1.29409504      -5.00000000       138.454453      -1.57079613    
   4.57987785       1.89704800      -4.00000000       138.560898      -1.57079601    
   4.57987785       1.89704800      -3.00000000       138.560898      -1.57079601    
   4.82962894       1.29409504      -3.00000000       138.560898      -1.57079601    
   4.82962894       1.29409504      -4.00000000       138.560898      -1.57079601    
   4.57987785       1.89704800      -3.00000000       138.515869      -1.57079613    
   4.57987785       1.89704800      -2.00000000       138.515869      -1.57079613    
   4.82962894       1.29409504      -2.00000000       138.515869      -1.57079613    
   4.82962894       1.29409504      -3.00000000       138.515869      -1.57079613    
   4.57987785       1.89704800      -2.00000000       138.541458      -1.57079518    
   4.57987785       1.89704800      -1.00000000       138.541458      -1.57079518    
   4.82962894       1.29409504      -1.00000000       138.541458      -1.57079518    
   4.82962894       1.29409504      -2.00000000       138.541458      -1.57079518    
   4.57987785       1.89704800      -1.00000000       138.135300      -1.57079422    
   4.57987785       1.89704800       0.00000000       138.135300      -1.57079422    
   4.82962894       1.29409504       0.00000000       138.135300      -1.57079422    
   4.82962894       1.29409504      -1.00000000       138.135300      -1.57079422    
   3.53553391       3.53553391      -10.0000000       135.398972       1.57079625    
   3.53553391       3.53553391      -9.00000000       135.398972       1.57079625    
   3.93283010       3.01776695      -9.00000000       135.398972       1.57079625    
   3.93283010       3.01776695      -10.0000000       135.398972       1.57079625    
   3.53553391       3.53553391      -9.00000000       138.467361       1.57079613    
   3.53553391       3.53553391      -8.00000000       138.467361       1.57079613    
   3.93283010       3.01776695      -8.00000000       138.467361       1.57079613    
   3.93283010       3.01776695      -9.00000000       138.467361       1.57079613    
   3.53553391       3.53553391      -8.00000000       138.484222       1.57079601    
   3.53553391       3.53553391      -7.00000000       138.484222       1.57079601    
   3.93283010       3.01776695      -7.00000000       138.484222       1.57079601    
   3.93283010       3.01776695      -8.00000000       138.484222       1.57079601    
   3.53553391       3.53553391      -7.00000000       138.507004       1.57079601    
   3.53553391       3.53553391      -6.00000000       138.507004       1.57079601    
   3.93283010       3.01776695      -6.00000000       138.507004       1.57079601    
   3.93283010       3.01776695      -7.00000000       138.507004       1.57079601    
   3.53553391       3.53553391      -6.00000000       138.453934       1.57079613    
   3.53553391       3.53553391      -5.00000000       138.453934       1.57079613    
   3.93283010       3.01776695      -5.00000000       138.453934       1.57079613    
   3.93283010       3.01776695      -6.00000000       138.453934       1.57079613    
   3.53553391       3.53553391      -5.00000000       138.453400       1.57079601    
   3.53553391       3.53553391      -4.00000000       138.453400       1.57079601    
   3.93283010       3.01776695      -4.00000000       138.453400       1.57079601    
   3.93283010       3.01776695      -5.00000000       138.453400       1.57079601    
   3.53553391       3.53553391      -4.00000000       138.560577       1.57079577    
   3.53553391       3.53553391      -3.00000000       138.560577       1.57079577    
   3.93283010       3.01776695      -3.00000000       138.560577       1.57079577    
   3.93283010       3.01776695      -4.00000000       138.560577       1.57079577    
   3.53553391       3.53553391      -3.00000000       138.515671       1.57079601    
   3.53553391       3.53553391      -2.00000000       138.515671       1.57079601    
   3.93283010       3.01776695      -2.00000000       138.515671       1.57079601    
   3.93283010       3.01776695      -3.00000000       138.515671       1.57079601    
   3.53553391       3.53553391      -2.00000000       138.540924       1.57079566    
   3.53553391       3.53553391      -1.00000000       138.540924       1.57079566    
   3.93283010       3.01776695      -1.00000000       138.540924       1.57079566    
   3.93283010       3.01776695      -2.00000000       138.540924       1.57079566    
   3.53553391       3.53553391      -1.00000000       138.134064       1.57079637    
   3.53553391       3.53553391       0.00000000       138.134064       1.57079637    
   3.93283010       3.01776695       0.00000000       138.134064       1.57079637    
   3.93283010       3.01776695      -1.00000000       138.134064       1.57079637    
   3.93283010       3.01776695      -10.0000000       135.397476      -1.57079625    
   3.93283010       3.01776695      -9.00000000       135.397476      -1.57079625    
   4.33012676       2.50000000      -9.00000000       135.397476      -1.57079625    
   4.33012676       2.50000000      -10.0000000       135.397476      -1.57079625    
   3.93283010       3.01776695      -9.00000000       138.466019      -1.57079613    
   3.93283010       3.01776695      -8.00000000       138.466019      -1.57079613    
   4.33012676       2.50000000      -8.00000000       138.466019      -1.57079613    
   4.33012676       2.50000000      -9.00000000       138.466019      -1.57079613    
   3.93283010       3.01776695      -8.00000000       138.483215      -1.57079613    
   3.93283010       3.01776695      -7.00000000       138.483215      -1.57079613    
   4.33012676       2.50000000      -7.00000000       138.483215      -1.57079613    
   4.33012676       2.50000000      -8.00000000       138.483215      -1.57079613    
   3.93283010       3.01776695      -7.00000000       138.506241      -1.57079601    
   3.93283010       3.01776695      -6.00000000       138.506241      -1.57079601    
   4.33012676       2.50000000      -6.00000000       138.506241      -1.57079601    
   4.33012676       2.50000000      -7.00000000       138.506241      -1.57079601    
   3.93283010       3.01776695      -6.00000000       138.453217      -1.57079613    
   3.93283010       3.01776695      -5.00000000       138.453217      -1.57079613    
   4.33012676       2.50000000      -5.00000000       138.453217      -1.57079613    
   4.33012676       2.50000000      -6.00000000       138.453217      -1.57079613    
   3.93283010       3.01776695      -5.00000000       138.453156      -1.57079577    
   3.93283010       3.01776695      -4.00000000       138.453156      -1.57079577    
   4.33012676       2.50000000      -4.00000000       138.453156      -1.57079577    
   4.33012676       2.50000000      -5.00000000       138.453156      -1.57079577    
   3.93283010       3.01776695      -4.00000000       138.559875      -1.57079554    
   3.93283010       3.01776695      -3.00000000       138.559875      -1.57079554    
   4.33012676       2.50000000      -3.00000000       138.559875      -1.57079554    
   4.33012676       2.50000000      -4.00000000       138.559875      -1.57079554    
   3.93283010       3.01776695      -3.00000000       138.514572      -1.57079577    
   3.93283010       3.01776695      -2.00000000       138.514572      -1.57079577    
   4.33012676       2.50000000      -2.00000000       138.514572      -1.57079577    
   4.33012676       2.50000000      -3.00000000       138.514572      -1.57079577    
   3.93283010       3.01776695      -2.00000000       138.539856      -1.57079470    
   3.93283010       3.01776695      -1.00000000       138.539856      -1.57079470    
   4.33012676       2.50000000      -1.00000000       138.539856      -1.57079470    
   4.33012676       2.50000000      -2.00000000       138.539856      -1.57079470    
   3.93283010       3.01776695      -1.00000000       138.134079      -1.57079434    
   3.93283010       3.01776695       0.00000000       138.134079      -1.57079434    
   4.33012676       2.50000000       0.00000000       138.134079      -1.57079434    
   4.33012676       2.50000000      -1.00000000       138.134079      -1.57079434    
   2.50000000       4.33012676      -10.0000000       135.397903       1.57079613    
   2.50000000       4.33012676      -9.00000000       135.397903       1.57079613    
   3.01776695       3.93283010      -9.00000000       135.397903       1.57079613    
   3.01776695       3.93283010      -10.0000000       135.397903       1.57079613    
   2.50000000       4.33012676      -9.00000000       138.466034       1.57079625    
   2.50000000       4.33012676      -8.00000000       138.466034       1.57079625    
   3.01776695       3.93283010      -8.00000000       138.466034       1.57079625    
   3.01776695       3.93283010      -9.00000000       138.466034       1.57079625    
   2.50000000       4.33012676      -8.00000000       138.483231       1.57079625    
   2.50000000       4.33012676      -7.00000000       138.483231       1.57079625    
   3.01776695       3.93283010      -7.00000000       138.483231       1.57079625    
   3.01776695       3.93283010      -8.00000000       138.483231       1.57079625    
   2.50000000       4.33012676      -7.00000000       138.505753       1.57079601    
   2.50000000       4.33012676      -6.00000000       138.505753       1.57079601    
   3.01776695       3.93283010      -6.00000000       138.505753       1.57079601    
   3.01776695       3.93283010      -7.00000000       138.505753       1.57079601    
   2.50000000       4.33012676      -6.00000000       138.452988       1.57079589    
   2.50000000       4.33012676      -5.00000000       138.452988       1.57079589    
   3.01776695       3.93283010      -5.00000000       138.452988       1.57079589    
   3.01776695       3.93283010      -6.00000000       138.452988       1.57079589    
   2.50000000       4.33012676      -5.00000000       138.452652       1.57079613    
   2.50000000       4.33012676      -4.00000000       138.452652       1.57079613    
   3.01776695       3.93283010      -4.00000000       138.452652       1.57079613    
   3.01776695       3.93283010      -5.00000000       138.452652       1.57079613    
   2.50000000       4.33012676      -4.00000000       138.559418       1.57079577    
   2.50000000       4.33012676      -3.00000000       138.559418       1.57079577    
   3.01776695       3.93283010      -3.00000000       138.559418       1.57079577    
   3.01776695       3.93283010      -4.00000000       138.559418       1.57079577    
   2.50000000       4.33012676      -3.00000000       138.514206       1.57079566    
   2.50000000       4.33012676      -2.00000000       138.514206       1.57079566    
   3.01776695       3.93283010      -2.00000000       138.514206       1.57079566    
   3.01776695       3.93283010      -3.00000000       138.514206       1.57079566    
   2.50000000       4.33012676      -2.00000000       138.539856       1.57079613    
   2.50000000       4.33012676      -1.00000000       138.539856       1.57079613    
   3.01776695       3.93283010      -1.00000000       138.539856       1.57079613    
   3.01776695       3.93283010      -2.00000000       138.539856       1.57079613    
   2.50000000       4.33012676      -1.00000000       138.133438       1.57079542    
   2.50000000       4.33012676       0.00000000       138.133438       1.57079542    
   3.01776695       3.93283010       0.00000000       138.133438       1.57079542    
   3.01776695       3.93283010      -1.00000000       138.133438       1.57079542    
   3.01776695       3.93283010      -10.0000000       135.398651      -1.57079625    
   3.01776695       3.93283010      -9.00000000       135.398651      -1.57079625    
   3.53553391       3.53553391      -9.00000000       135.398651      -1.57079625    
   3.53553391       3.53553391      -10.0000000       135.398651      -1.57079625    
   3.01776695       3.93283010      -9.00000000       138.467209      -1.57079625    
   3.01776695       3.93283010      -8.00000000       138.467209      -1.57079625    
   3.53553391       3.53553391      -8.00000000       138.467209      -1.57079625    
   3.53553391       3.53553391      -9.00000000       138.467209      -1.57079625    
   3.01776695       3.93283010      -8.00000000       138.484482      -1.57079625    
   3.01776695       3.93283010      -7.00000000       138.484482      -1.57079625    
   3.53553391       3.53553391      -7.00000000       138.484482      -1.57079625    
   3.53553391       3.53553391      -8.00000000       138.484482      -1.57079625    
   3.01776695       3.93283010      -7.00000000       138.507446      -1.57079601    
   3.01776695       3.93283010      -6.00000000       138.507446      -1.57079601    
   3.53553391       3.53553391      -6.00000000       138.507446      -1.57079601    
   3.53553391       3.53553391      -7.00000000       138.507446      -1.57079601    
   3.01776695       3.93283010      -6.00000000       138.453964      -1.57079589    
   3.01776695       3.93283010      -5.00000000       138.453964      -1.57079589    
   3.53553391       3.53553391      -5.00000000       138.453964      -1.57079589    
   3.53553391       3.53553391      -6.00000000       138.453964      -1.57079589    
   3.01776695       3.93283010      -5.00000000       138.454178      -1.57079601    
   3.01776695       3.93283010      -4.00000000       138.454178      -1.57079601    
   3.53553391       3.53553391      -4.00000000       138.454178      -1.57079601    
   3.53553391       3.53553391      -5.00000000       138.454178      -1.57079601    
   3.01776695       3.93283010      -4.00000000       138.560638      -1.57079601    
   3.01776695       3.93283010      -3.00000000       138.560638      -1.57079601    
   3.53553391       3.53553391      -3.00000000       138.560638      -1.57079601    
   3.53553391       3.53553391      -4.00000000       138.560638      -1.57079601    
   3.01776695       3.93283010      -3.00000000       138.515747      -1.57079542    
   3.01776695       3.93283010      -2.00000000       138.515747      -1.57079542    
   3.53553391       3.53553391      -2.00000000       138.515747      -1.57079542    
   3.53553391       3.53553391      -3.00000000       138.515747      -1.57079542    
   3.01776695       3.93283010      -2.00000000       138.540985      -1.57079470    
   3.01776695       3.93283010      -1.00000000       138.540985      -1.57079470    
   3.53553391       3.53553391      -1.00000000       138.540985      -1.57079470    
   3.53553391       3.53553391      -2.00000000       138.540985      -1.57079470    
   3.01776695       3.93283010      -1.00000000       138.134827      -1.57079351    
   3.01776695       3.93283010       0.00000000       138.134827      -1.57079351    
   3.53553391       3.53553391       0.00000000       138.134827      -1.57079351    
   3.53553391       3.53553391      -1.00000000       138.134827      -1.57079351    
   1.29409504       4.82962894      -10.0000000       135.398880       1.57079625    
   1.29409504       4.82962894      -9.00000000       135.398880       1.57079625    
   1.89704800       4.57987785      -9.00000000       135.398880       1.57079625    
   1.89704800       4.57987785      -10.0000000       135.398880       1.57079625    
   1.29409504       4.82962894      -9.00000000       138.467087       1.57079613    
   1.29409504       4.82962894      -8.00000000       138.467087       1.57079613    
   1.89704800       4.57987785      -8.00000000       138.467087       1.57079613    
   1.89704800       4.57987785      -9.00000000       138.467087       1.57079613    
   1.29409504       4.82962894      -8.00000000       138.484329       1.57079613    
   1.29409504       4.82962894      -7.00000000       138.484329       1.57079613    
   1.89704800       4.57987785      -7.00000000       138.484329       1.57079613    
   1.89704800       4.57987785      -8.00000000       138.484329       1.57079613    
   1.29409504       4.82962894      -7.00000000       138.507019       1.57079601    
   1.29409504       4.82962894      -6.00000000       138.507019       1.57079601    
   1.89704800       4.57987785      -6.00000000       138.507019       1.57079601    
   1.89704800       4.57987785      -7.00000000       138.507019       1.57079601    
   1.29409504       4.82962894      -6.00000000       138.454391       1.57079625    
   1.29409504       4.82962894      -5.00000000       138.454391       1.57079625    
   1.89704800       4.57987785      -5.00000000       138.454391       1.57079625    
   1.89704800       4.57987785      -6.00000000       138.454391       1.57079625    
   1.29409504       4.82962894      -5.00000000       138.454483       1.57079589    
   1.29409504       4.82962894      -4.00000000       138.454483       1.57079589    
   1.89704800       4.57987785      -4.00000000       138.454483       1.57079589    
   1.89704800       4.57987785      -5.00000000       138.454483       1.57079589    
   1.29409504       4.82962894      -4.00000000       138.560745       1.57079554    
   1.29409504       4.82962894      -3.00000000       138.560745       1.57079554    
   1.89704800       4.57987785      -3.00000000       138.560745       1.57079554    