 VARIABLES="X" "Y" "Z" "abs(p) (Pa)" "angle(p) (rad)"
ZONE N=   1080,E =     600, F=FEPOINT, ET=QUADRILATERAL
   4.82962894       1.29409504      -10.0000000       287.351715      -1.74086595    
   4.82962894       1.29409504      -9.00000000       287.351715      -1.74086595    
   4.91481400      0.647047520      -9.00000000       287.351715      -1.74086595    
   4.91481400      0.647047520      -10.0000000       287.351715      -1.74086595    
   4.82962894       1.29409504      -9.00000000       436.801697      -1.78401923    
   4.82962894       1.29409504      -8.00000000       436.801697      -1.78401923    
   4.91481400      0.647047520      -8.00000000       436.801697      -1.78401923    
   4.91481400      0.647047520      -9.00000000       436.801697      -1.78401923    
   4.82962894       1.29409504      -8.00000000       649.830017      -1.79633319    
   4.82962894       1.29409504      -7.00000000       649.830017      -1.79633319    
   4.91481400      0.647047520      -7.00000000       649.830017      -1.79633319    
   4.91481400      0.647047520      -8.00000000       649.830017      -1.79633319    
   4.82962894       1.29409504      -7.00000000       963.740234      -1.80052578    
   4.82962894       1.29409504      -6.00000000       963.740234      -1.80052578    
   4.91481400      0.647047520      -6.00000000       963.740234      -1.80052578    
   4.91481400      0.647047520      -7.00000000       963.740234      -1.80052578    
   4.82962894       1.29409504      -6.00000000       1428.23926      -1.80134177    
   4.82962894       1.29409504      -5.00000000       1428.23926      -1.80134177    
   4.91481400      0.647047520      -5.00000000       1428.23926      -1.80134177    
   4.91481400      0.647047520      -6.00000000       1428.23926      -1.80134177    
   4.82962894       1.29409504      -5.00000000       2116.34302      -1.80088305    
   4.82962894       1.29409504      -4.00000000       2116.34302      -1.80088305    
   4.91481400      0.647047520      -4.00000000       2116.34302      -1.80088305    
   4.91481400      0.647047520      -5.00000000       2116.34302      -1.80088305    
   4.82962894       1.29409504      -4.00000000       3135.93359      -1.79968441    
   4.82962894       1.29409504      -3.00000000       3135.93359      -1.79968441    
   4.91481400      0.647047520      -3.00000000       3135.93359      -1.79968441    
   4.91481400      0.647047520      -4.00000000       3135.93359      -1.79968441    
   4.82962894       1.29409504      -3.00000000       4647.53369      -1.79773569    
   4.82962894       1.29409504      -2.00000000       4647.53369      -1.79773569    
   4.91481400      0.647047520      -2.00000000       4647.53369      -1.79773569    
   4.91481400      0.647047520      -3.00000000       4647.53369      -1.79773569    
   4.82962894       1.29409504      -2.00000000       6887.22021      -1.79543340    
   4.82962894       1.29409504      -1.00000000       6887.22021      -1.79543340    
   4.91481400      0.647047520      -1.00000000       6887.22021      -1.79543340    
   4.91481400      0.647047520      -2.00000000       6887.22021      -1.79543340    
   4.82962894       1.29409504      -1.00000000       10206.1025      -1.79177320    
   4.82962894       1.29409504       0.00000000       10206.1025      -1.79177320    
   4.91481400      0.647047520       0.00000000       10206.1025      -1.79177320    
   4.91481400      0.647047520      -1.00000000       10206.1025      -1.79177320    
   4.91481400      0.647047520      -10.0000000       301.050568      -1.72513402    
   4.91481400      0.647047520      -9.00000000       301.050568      -1.72513402    
   5.00000000       0.00000000      -9.00000000       301.050568      -1.72513402    
   5.00000000       0.00000000      -10.0000000       301.050568      -1.72513402    
   4.91481400      0.647047520      -9.00000000       459.223389      -1.76772356    
   4.91481400      0.647047520      -8.00000000       459.223389      -1.76772356    
   5.00000000       0.00000000      -8.00000000       459.223389      -1.76772356    
   5.00000000       0.00000000      -9.00000000       459.223389      -1.76772356    
   4.91481400      0.647047520      -8.00000000       683.758484      -1.77999830    
   4.91481400      0.647047520      -7.00000000       683.758484      -1.77999830    
   5.00000000       0.00000000      -7.00000000       683.758484      -1.77999830    
   5.00000000       0.00000000      -8.00000000       683.758484      -1.77999830    
   4.91481400      0.647047520      -7.00000000       1014.27228      -1.78425252    
   4.91481400      0.647047520      -6.00000000       1014.27228      -1.78425252    
   5.00000000       0.00000000      -6.00000000       1014.27228      -1.78425252    
   5.00000000       0.00000000      -7.00000000       1014.27228      -1.78425252    
   4.91481400      0.647047520      -6.00000000       1503.10535      -1.78516197    
   4.91481400      0.647047520      -5.00000000       1503.10535      -1.78516197    
   5.00000000       0.00000000      -5.00000000       1503.10535      -1.78516197    
   5.00000000       0.00000000      -6.00000000       1503.10535      -1.78516197    
   4.91481400      0.647047520      -5.00000000       2227.08691      -1.78479815    
   4.91481400      0.647047520      -4.00000000       2227.08691      -1.78479815    
   5.00000000       0.00000000      -4.00000000       2227.08691      -1.78479815    
   5.00000000       0.00000000      -5.00000000       2227.08691      -1.78479815    
   4.91481400      0.647047520      -4.00000000       3299.54614      -1.78371644    
   4.91481400      0.647047520      -3.00000000       3299.54614      -1.78371644    
   5.00000000       0.00000000      -3.00000000       3299.54614      -1.78371644    
   5.00000000       0.00000000      -4.00000000       3299.54614      -1.78371644    
   4.91481400      0.647047520      -3.00000000       4889.06348      -1.78191864    
   4.91481400      0.647047520      -2.00000000       4889.06348      -1.78191864    
   5.00000000       0.00000000      -2.00000000       4889.06348      -1.78191864    
   5.00000000       0.00000000      -3.00000000       4889.06348      -1.78191864    
   4.91481400      0.647047520      -2.00000000       7243.50293      -1.77979326    
   4.91481400      0.647047520      -1.00000000       7243.50293      -1.77979326    
   5.00000000       0.00000000      -1.00000000       7243.50293      -1.77979326    
   5.00000000       0.00000000      -2.00000000       7243.50293      -1.77979326    
   4.91481400      0.647047520      -1.00000000       10730.3242      -1.77646863    
   4.91481400      0.647047520       0.00000000       10730.3242      -1.77646863    
   5.00000000       0.00000000       0.00000000       10730.3242      -1.77646863    
   5.00000000       0.00000000      -1.00000000       10730.3242      -1.77646863    
   4.33012676       2.50000000      -10.0000000       222.549026      -1.82128727    
   4.33012676       2.50000000      -9.00000000       222.549026      -1.82128727    
   4.57987785       1.89704800      -9.00000000       222.549026      -1.82128727    
   4.57987785       1.89704800      -10.0000000       222.549026      -1.82128727    
   4.33012676       2.50000000      -9.00000000       330.424194      -1.86796701    
   4.33012676       2.50000000      -8.00000000       330.424194      -1.86796701    
   4.57987785       1.89704800      -8.00000000       330.424194      -1.86796701    
   4.57987785       1.89704800      -9.00000000       330.424194      -1.86796701    
   4.33012676       2.50000000      -8.00000000       488.841187      -1.88054621    
   4.33012676       2.50000000      -7.00000000       488.841187      -1.88054621    
   4.57987785       1.89704800      -7.00000000       488.841187      -1.88054621    
   4.57987785       1.89704800      -8.00000000       488.841187      -1.88054621    
   4.33012676       2.50000000      -7.00000000       723.952332      -1.88431311    
   4.33012676       2.50000000      -6.00000000       723.952332      -1.88431311    
   4.57987785       1.89704800      -6.00000000       723.952332      -1.88431311    
   4.57987785       1.89704800      -7.00000000       723.952332      -1.88431311    
   4.33012676       2.50000000      -6.00000000       1072.94604      -1.88447797    
   4.33012676       2.50000000      -5.00000000       1072.94604      -1.88447797    
   4.57987785       1.89704800      -5.00000000       1072.94604      -1.88447797    
   4.57987785       1.89704800      -6.00000000       1072.94604      -1.88447797    
   4.33012676       2.50000000      -5.00000000       1590.73230      -1.88335919    
   4.33012676       2.50000000      -4.00000000       1590.73230      -1.88335919    
   4.57987785       1.89704800      -4.00000000       1590.73230      -1.88335919    
   4.57987785       1.89704800      -5.00000000       1590.73230      -1.88335919    
   4.33012676       2.50000000      -4.00000000       2359.18677      -1.88136053    
   4.33012676       2.50000000      -3.00000000       2359.18677      -1.88136053    
   4.57987785       1.89704800      -3.00000000       2359.18677      -1.88136053    
   4.57987785       1.89704800      -4.00000000       2359.18677      -1.88136053    
   4.33012676       2.50000000      -3.00000000       3500.74585      -1.87839448    
   4.33012676       2.50000000      -2.00000000       3500.74585      -1.87839448    
   4.57987785       1.89704800      -2.00000000       3500.74585      -1.87839448    
   4.57987785       1.89704800      -3.00000000       3500.74585      -1.87839448    
   4.33012676       2.50000000      -2.00000000       5195.38379      -1.87490237    
   4.33012676       2.50000000      -1.00000000       5195.38379      -1.87490237    
   4.57987785       1.89704800      -1.00000000       5195.38379      -1.87490237    
   4.57987785       1.89704800      -2.00000000       5195.38379      -1.87490237    
   4.33012676       2.50000000      -1.00000000       7718.09863      -1.86904979    
   4.33012676       2.50000000       0.00000000       7718.09863      -1.86904979    
   4.57987785       1.89704800       0.00000000       7718.09863      -1.86904979    
   4.57987785       1.89704800      -1.00000000       7718.09863      -1.86904979    
   4.57987785       1.89704800      -10.0000000       258.481506      -1.77091610    
   4.57987785       1.89704800      -9.00000000       258.481506      -1.77091610    
   4.82962894       1.29409504      -9.00000000       258.481506      -1.77091610    
   4.82962894       1.29409504      -10.0000000       258.481506      -1.77091610    
   4.57987785       1.89704800      -9.00000000       389.149200      -1.81543756    
   4.57987785       1.89704800      -8.00000000       389.149200      -1.81543756    
   4.82962894       1.29409504      -8.00000000       389.149200      -1.81543756    
   4.82962894       1.29409504      -9.00000000       389.149200      -1.81543756    
   4.57987785       1.89704800      -8.00000000       577.685059      -1.82787859    
   4.57987785       1.89704800      -7.00000000       577.685059      -1.82787859    
   4.82962894       1.29409504      -7.00000000       577.685059      -1.82787859    
   4.82962894       1.29409504      -8.00000000       577.685059      -1.82787859    
   4.57987785       1.89704800      -7.00000000       856.278137      -1.83192337    
   4.57987785       1.89704800      -6.00000000       856.278137      -1.83192337    
   4.82962894       1.29409504      -6.00000000       856.278137      -1.83192337    
   4.82962894       1.29409504      -7.00000000       856.278137      -1.83192337    
   4.57987785       1.89704800      -6.00000000       1269.01599      -1.83250809    
   4.57987785       1.89704800      -5.00000000       1269.01599      -1.83250809    
   4.82962894       1.29409504      -5.00000000       1269.01599      -1.83250809    
   4.82962894       1.29409504      -6.00000000       1269.01599      -1.83250809    
   4.57987785       1.89704800      -5.00000000       1880.80017      -1.83181238    
   4.57987785       1.89704800      -4.00000000       1880.80017      -1.83181238    
   4.82962894       1.29409504      -4.00000000       1880.80017      -1.83181238    
   4.82962894       1.29409504      -5.00000000       1880.80017      -1.83181238    
   4.57987785       1.89704800      -4.00000000       2787.80225      -1.83031940    
   4.57987785       1.89704800      -3.00000000       2787.80225      -1.83031940    
   4.82962894       1.29409504      -3.00000000       2787.80225      -1.83031940    
   4.82962894       1.29409504      -4.00000000       2787.80225      -1.83031940    
   4.57987785       1.89704800      -3.00000000       4133.60693      -1.82800329    
   4.57987785       1.89704800      -2.00000000       4133.60693      -1.82800329    
   4.82962894       1.29409504      -2.00000000       4133.60693      -1.82800329    
   4.82962894       1.29409504      -3.00000000       4133.60693      -1.82800329    
   4.57987785       1.89704800      -2.00000000       6129.14600      -1.82526040    
   4.57987785       1.89704800      -1.00000000       6129.14600      -1.82526040    
   4.82962894       1.29409504      -1.00000000       6129.14600      -1.82526040    
   4.82962894       1.29409504      -2.00000000       6129.14600      -1.82526040    
   4.57987785       1.89704800      -1.00000000       9092.39844      -1.82079494    
   4.57987785       1.89704800       0.00000000       9092.39844      -1.82079494    
   4.82962894       1.29409504       0.00000000       9092.39844      -1.82079494    
   4.82962894       1.29409504      -1.00000000       9092.39844      -1.82079494    
   3.53553391       3.53553391      -10.0000000       130.877792      -1.98537731    
   3.53553391       3.53553391      -9.00000000       130.877792      -1.98537731    
   3.93283010       3.01776695      -9.00000000       130.877792      -1.98537731    
   3.93283010       3.01776695      -10.0000000       130.877792      -1.98537731    
   3.53553391       3.53553391      -9.00000000       180.234863      -2.04365873    
   3.53553391       3.53553391      -8.00000000       180.234863      -2.04365873    
   3.93283010       3.01776695      -8.00000000       180.234863      -2.04365873    
   3.93283010       3.01776695      -9.00000000       180.234863      -2.04365873    
   3.53553391       3.53553391      -8.00000000       261.596863      -2.05728507    
   3.53553391       3.53553391      -7.00000000       261.596863      -2.05728507    
   3.93283010       3.01776695      -7.00000000       261.596863      -2.05728507    
   3.93283010       3.01776695      -8.00000000       261.596863      -2.05728507    
   3.53553391       3.53553391      -7.00000000       385.409698      -2.05939102    
   3.53553391       3.53553391      -6.00000000       385.409698      -2.05939102    
   3.93283010       3.01776695      -6.00000000       385.409698      -2.05939102    
   3.93283010       3.01776695      -7.00000000       385.409698      -2.05939102    
   3.53553391       3.53553391      -6.00000000       571.157410      -2.05693388    
   3.53553391       3.53553391      -5.00000000       571.157410      -2.05693388    
   3.93283010       3.01776695      -5.00000000       571.157410      -2.05693388    
   3.93283010       3.01776695      -6.00000000       571.157410      -2.05693388    
   3.53553391       3.53553391      -5.00000000       848.146118      -2.05316067    
   3.53553391       3.53553391      -4.00000000       848.146118      -2.05316067    
   3.93283010       3.01776695      -4.00000000       848.146118      -2.05316067    
   3.93283010       3.01776695      -5.00000000       848.146118      -2.05316067    
   3.53553391       3.53553391      -4.00000000       1261.36487      -2.04805923    
   3.53553391       3.53553391      -3.00000000       1261.36487      -2.04805923    
   3.93283010       3.01776695      -3.00000000       1261.36487      -2.04805923    
   3.93283010       3.01776695      -4.00000000       1261.36487      -2.04805923    
   3.53553391       3.53553391      -3.00000000       1879.14343      -2.04121447    
   3.53553391       3.53553391      -2.00000000       1879.14343      -2.04121447    
   3.93283010       3.01776695      -2.00000000       1879.14343      -2.04121447    
   3.93283010       3.01776695      -3.00000000       1879.14343      -2.04121447    
   3.53553391       3.53553391      -2.00000000       2801.87451      -2.03331113    
   3.53553391       3.53553391      -1.00000000       2801.87451      -2.03331113    
   3.93283010       3.01776695      -1.00000000       2801.87451      -2.03331113    
   3.93283010       3.01776695      -2.00000000       2801.87451      -2.03331113    
   3.53553391       3.53553391      -1.00000000       4196.02441      -2.01972890    
   3.53553391       3.53553391       0.00000000       4196.02441      -2.01972890    
   3.93283010       3.01776695       0.00000000       4196.02441      -2.01972890    
   3.93283010       3.01776695      -1.00000000       4196.02441      -2.01972890    
   3.93283010       3.01776695      -10.0000000       175.678482      -1.88564396    
   3.93283010       3.01776695      -9.00000000       175.678482      -1.88564396    
   4.33012676       2.50000000      -9.00000000       175.678482      -1.88564396    
   4.33012676       2.50000000      -10.0000000       175.678482      -1.88564396    
   3.93283010       3.01776695      -9.00000000       253.186066      -1.93593597    
   3.93283010       3.01776695      -8.00000000       253.186066      -1.93593597    
   4.33012676       2.50000000      -8.00000000       253.186066      -1.93593597    
   4.33012676       2.50000000      -9.00000000       253.186066      -1.93593597    
   3.93283010       3.01776695      -8.00000000       371.924530      -1.94877636    
   3.93283010       3.01776695      -7.00000000       371.924530      -1.94877636    
   4.33012676       2.50000000      -7.00000000       371.924530      -1.94877636    
   4.33012676       2.50000000      -8.00000000       371.924530      -1.94877636    
   3.93283010       3.01776695      -7.00000000       549.782349      -1.95194566    
   3.93283010       3.01776695      -6.00000000       549.782349      -1.95194566    
   4.33012676       2.50000000      -6.00000000       549.782349      -1.95194566    
   4.33012676       2.50000000      -7.00000000       549.782349      -1.95194566    
   3.93283010       3.01776695      -6.00000000       814.835815      -1.95122731    
   3.93283010       3.01776695      -5.00000000       814.835815      -1.95122731    
   4.33012676       2.50000000      -5.00000000       814.835815      -1.95122731    
   4.33012676       2.50000000      -6.00000000       814.835815      -1.95122731    
   3.93283010       3.01776695      -5.00000000       1208.82996      -1.94922185    
   3.93283010       3.01776695      -4.00000000       1208.82996      -1.94922185    
   4.33012676       2.50000000      -4.00000000       1208.82996      -1.94922185    
   4.33012676       2.50000000      -5.00000000       1208.82996      -1.94922185    
   3.93283010       3.01776695      -4.00000000       1794.62463      -1.94616616    
   3.93283010       3.01776695      -3.00000000       1794.62463      -1.94616616    
   4.33012676       2.50000000      -3.00000000       1794.62463      -1.94616616    
   4.33012676       2.50000000      -4.00000000       1794.62463      -1.94616616    
   3.93283010       3.01776695      -3.00000000       2667.07910      -1.94189656    
   3.93283010       3.01776695      -2.00000000       2667.07910      -1.94189656    
   4.33012676       2.50000000      -2.00000000       2667.07910      -1.94189656    
   4.33012676       2.50000000      -3.00000000       2667.07910      -1.94189656    
   3.93283010       3.01776695      -2.00000000       3965.33325      -1.93688953    
   3.93283010       3.01776695      -1.00000000       3965.33325      -1.93688953    
   4.33012676       2.50000000      -1.00000000       3965.33325      -1.93688953    
   4.33012676       2.50000000      -2.00000000       3965.33325      -1.93688953    
   3.93283010       3.01776695      -1.00000000       5910.31836      -1.92839432    
   3.93283010       3.01776695       0.00000000       5910.31836      -1.92839432    
   4.33012676       2.50000000       0.00000000       5910.31836      -1.92839432    
   4.33012676       2.50000000      -1.00000000       5910.31836      -1.92839432    
   2.50000000       4.33012676      -10.0000000       45.3892975      -2.32968426    
   2.50000000       4.33012676      -9.00000000       45.3892975      -2.32968426    
   3.01776695       3.93283010      -9.00000000       45.3892975      -2.32968426    
   3.01776695       3.93283010      -10.0000000       45.3892975      -2.32968426    
   2.50000000       4.33012676      -9.00000000       41.5643730      -2.53280306    
   2.50000000       4.33012676      -8.00000000       41.5643730      -2.53280306    
   3.01776695       3.93283010      -8.00000000       41.5643730      -2.53280306    
   3.01776695       3.93283010      -9.00000000       41.5643730      -2.53280306    
   2.50000000       4.33012676      -8.00000000       52.1555710      -2.59809494    
   2.50000000       4.33012676      -7.00000000       52.1555710      -2.59809494    
   3.01776695       3.93283010      -7.00000000       52.1555710      -2.59809494    
   3.01776695       3.93283010      -8.00000000       52.1555710      -2.59809494    
   2.50000000       4.33012676      -7.00000000       72.8891830      -2.59919548    
   2.50000000       4.33012676      -6.00000000       72.8891830      -2.59919548    
   3.01776695       3.93283010      -6.00000000       72.8891830      -2.59919548    
   3.01776695       3.93283010      -7.00000000       72.8891830      -2.59919548    
   2.50000000       4.33012676      -6.00000000       106.628670      -2.57142401    
   2.50000000       4.33012676      -5.00000000       106.628670      -2.57142401    
   3.01776695       3.93283010      -5.00000000       106.628670      -2.57142401    
   3.01776695       3.93283010      -6.00000000       106.628670      -2.57142401    
   2.50000000       4.33012676      -5.00000000       158.828766      -2.53739429    
   2.50000000       4.33012676      -4.00000000       158.828766      -2.53739429    
   3.01776695       3.93283010      -4.00000000       158.828766      -2.53739429    
   3.01776695       3.93283010      -5.00000000       158.828766      -2.53739429    
   2.50000000       4.33012676      -4.00000000       239.385361      -2.49619126    
   2.50000000       4.33012676      -3.00000000       239.385361      -2.49619126    
   3.01776695       3.93283010      -3.00000000       239.385361      -2.49619126    
   3.01776695       3.93283010      -4.00000000       239.385361      -2.49619126    
   2.50000000       4.33012676      -3.00000000       364.843628      -2.44537640    
   2.50000000       4.33012676      -2.00000000       364.843628      -2.44537640    
   3.01776695       3.93283010      -2.00000000       364.843628      -2.44537640    
   3.01776695       3.93283010      -3.00000000       364.843628      -2.44537640    
   2.50000000       4.33012676      -2.00000000       560.203369      -2.39067769    
   2.50000000       4.33012676      -1.00000000       560.203369      -2.39067769    
   3.01776695       3.93283010      -1.00000000       560.203369      -2.39067769    
   3.01776695       3.93283010      -2.00000000       560.203369      -2.39067769    
   2.50000000       4.33012676      -1.00000000       885.592346      -2.30441880    
   2.50000000       4.33012676       0.00000000       885.592346      -2.30441880    
   3.01776695       3.93283010       0.00000000       885.592346      -2.30441880    
   3.01776695       3.93283010      -1.00000000       885.592346      -2.30441880    
   3.01776695       3.93283010      -10.0000000       83.1300507      -2.10151744    
   3.01776695       3.93283010      -9.00000000       83.1300507      -2.10151744    
   3.53553391       3.53553391      -9.00000000       83.1300507      -2.10151744    
   3.53553391       3.53553391      -10.0000000       83.1300507      -2.10151744    
   3.01776695       3.93283010      -9.00000000       101.810844      -2.17717147    
   3.01776695       3.93283010      -8.00000000       101.810844      -2.17717147    
   3.53553391       3.53553391      -8.00000000       101.810844      -2.17717147    
   3.53553391       3.53553391      -9.00000000       101.810844      -2.17717147    
   3.01776695       3.93283010      -8.00000000       142.884338      -2.19322491    
   3.01776695       3.93283010      -7.00000000       142.884338      -2.19322491    
   3.53553391       3.53553391      -7.00000000       142.884338      -2.19322491    
   3.53553391       3.53553391      -8.00000000       142.884338      -2.19322491    
   3.01776695       3.93283010      -7.00000000       208.443344      -2.19225407    
   3.01776695       3.93283010      -6.00000000       208.443344      -2.19225407    
   3.53553391       3.53553391      -6.00000000       208.443344      -2.19225407    
   3.53553391       3.53553391      -7.00000000       208.443344      -2.19225407    
   3.01776695       3.93283010      -6.00000000       308.681549      -2.18465471    
   3.01776695       3.93283010      -5.00000000       308.681549      -2.18465471    
   3.53553391       3.53553391      -5.00000000       308.681549      -2.18465471    
   3.53553391       3.53553391      -6.00000000       308.681549      -2.18465471    
   3.01776695       3.93283010      -5.00000000       459.486908      -2.17567897    
   3.01776695       3.93283010      -4.00000000       459.486908      -2.17567897    
   3.53553391       3.53553391      -4.00000000       459.486908      -2.17567897    
   3.53553391       3.53553391      -5.00000000       459.486908      -2.17567897    
   3.01776695       3.93283010      -4.00000000       686.359009      -2.16457486    
   3.01776695       3.93283010      -3.00000000       686.359009      -2.16457486    
   3.53553391       3.53553391      -3.00000000       686.359009      -2.16457486    
   3.53553391       3.53553391      -4.00000000       686.359009      -2.16457486    
   3.01776695       3.93283010      -3.00000000       1029.27661      -2.15052891    
   3.01776695       3.93283010      -2.00000000       1029.27661      -2.15052891    
   3.53553391       3.53553391      -2.00000000       1029.27661      -2.15052891    
   3.53553391       3.53553391      -3.00000000       1029.27661      -2.15052891    
   3.01776695       3.93283010      -2.00000000       1546.82507      -2.13467693    
   3.01776695       3.93283010      -1.00000000       1546.82507      -2.13467693    
   3.53553391       3.53553391      -1.00000000       1546.82507      -2.13467693    
   3.53553391       3.53553391      -2.00000000       1546.82507      -2.13467693    
   3.01776695       3.93283010      -1.00000000       2349.49829      -2.10821795    
   3.01776695       3.93283010       0.00000000       2349.49829      -2.10821795    
   3.53553391       3.53553391       0.00000000       2349.49829      -2.10821795    
   3.53553391       3.53553391      -1.00000000       2349.49829      -2.10821795    
   1.29409504       4.82962894      -10.0000000       12.4828291       1.27911818    
   1.29409504       4.82962894      -9.00000000       12.4828291       1.27911818    
   1.89704800       4.57987785      -9.00000000       12.4828291       1.27911818    
   1.89704800       4.57987785      -10.0000000       12.4828291       1.27911818    
   1.29409504       4.82962894      -9.00000000       51.6166191      0.846145689    
   1.29409504       4.82962894      -8.00000000       51.6166191      0.846145689    
   1.89704800       4.57987785      -8.00000000       51.6166191      0.846145689    
   1.89704800       4.57987785      -9.00000000       51.6166191      0.846145689    
   1.29409504       4.82962894      -8.00000000       88.9851227      0.786252141    
   1.29409504       4.82962894      -7.00000000       88.9851227      0.786252141    
   1.89704800       4.57987785      -7.00000000       88.9851227      0.786252141    
   1.89704800       4.57987785      -8.00000000       88.9851227      0.786252141    
   1.29409504       4.82962894      -7.00000000       137.012955      0.753553510    
   1.29409504       4.82962894      -6.00000000       137.012955      0.753553510    
   1.89704800       4.57987785      -6.00000000       137.012955      0.753553510    
   1.89704800       4.57987785      -7.00000000       137.012955      0.753553510    
   1.29409504       4.82962894      -6.00000000       203.579666      0.727888048    
   1.29409504       4.82962894      -5.00000000       203.579666      0.727888048    
   1.89704800       4.57987785      -5.00000000       203.579666      0.727888048    
   1.89704800       4.57987785      -6.00000000       203.579666      0.727888048    
   1.29409504       4.82962894      -5.00000000       299.097778      0.706594050    
   1.29409504       4.82962894      -4.00000000       299.097778      0.706594050    
   1.89704800       4.57987785      -4.00000000       299.097778      0.706594050    
   1.89704800       4.57987785      -5.00000000       299.097778      0.706594050    
   1.29409504       4.82962894      -4.00000000       436.145874      0.684579372    
   1.29409504       4.82962894      -3.00000000       436.145874      0.684579372    
   1.89704800       4.57987785      -3.00000000       436.145874      0.684579372    