 VARIABLES="X" "Y" "Z" "abs(p) (Pa)" "angle(p) (rad)"
ZONE N=   1080,E =     600, F=FEPOINT, ET=QUADRILATERAL
   4.82962894       1.29409504      -10.0000000       439.766388      -2.71590114    
   4.82962894       1.29409504      -9.00000000       439.766388      -2.71590114    
   4.91481400      0.647047520      -9.00000000       439.766388      -2.71590114    
   4.91481400      0.647047520      -10.0000000       439.766388      -2.71590114    
   4.82962894       1.29409504      -9.00000000       689.867859      -2.64344239    
   4.82962894       1.29409504      -8.00000000       689.867859      -2.64344239    
   4.91481400      0.647047520      -8.00000000       689.867859      -2.64344239    
   4.91481400      0.647047520      -9.00000000       689.867859      -2.64344239    
   4.82962894       1.29409504      -8.00000000       862.005066      -3.07294250    
   4.82962894       1.29409504      -7.00000000       862.005066      -3.07294250    
   4.91481400      0.647047520      -7.00000000       862.005066      -3.07294250    
   4.91481400      0.647047520      -8.00000000       862.005066      -3.07294250    
   4.82962894       1.29409504      -7.00000000       1247.75964       2.85948730    
   4.82962894       1.29409504      -6.00000000       1247.75964       2.85948730    
   4.91481400      0.647047520      -6.00000000       1247.75964       2.85948730    
   4.91481400      0.647047520      -7.00000000       1247.75964       2.85948730    
   4.82962894       1.29409504      -6.00000000       1838.73633       2.69470286    
   4.82962894       1.29409504      -5.00000000       1838.73633       2.69470286    
   4.91481400      0.647047520      -5.00000000       1838.73633       2.69470286    
   4.91481400      0.647047520      -6.00000000       1838.73633       2.69470286    
   4.82962894       1.29409504      -5.00000000       2600.37500       2.64706707    
   4.82962894       1.29409504      -4.00000000       2600.37500       2.64706707    
   4.91481400      0.647047520      -4.00000000       2600.37500       2.64706707    
   4.91481400      0.647047520      -5.00000000       2600.37500       2.64706707    
   4.82962894       1.29409504      -4.00000000       3551.18921       2.66275883    
   4.82962894       1.29409504      -3.00000000       3551.18921       2.66275883    
   4.91481400      0.647047520      -3.00000000       3551.18921       2.66275883    
   4.91481400      0.647047520      -4.00000000       3551.18921       2.66275883    
   4.82962894       1.29409504      -3.00000000       4774.24609       2.70918012    
   4.82962894       1.29409504      -2.00000000       4774.24609       2.70918012    
   4.91481400      0.647047520      -2.00000000       4774.24609       2.70918012    
   4.91481400      0.647047520      -3.00000000       4774.24609       2.70918012    
   4.82962894       1.29409504      -2.00000000       6416.96924       2.76254153    
   4.82962894       1.29409504      -1.00000000       6416.96924       2.76254153    
   4.91481400      0.647047520      -1.00000000       6416.96924       2.76254153    
   4.91481400      0.647047520      -2.00000000       6416.96924       2.76254153    
   4.82962894       1.29409504      -1.00000000       8686.70215       2.80289102    
   4.82962894       1.29409504       0.00000000       8686.70215       2.80289102    
   4.91481400      0.647047520       0.00000000       8686.70215       2.80289102    
   4.91481400      0.647047520      -1.00000000       8686.70215       2.80289102    
   4.91481400      0.647047520      -10.0000000       190.449799      -2.40973330    
   4.91481400      0.647047520      -9.00000000       190.449799      -2.40973330    
   5.00000000       0.00000000      -9.00000000       190.449799      -2.40973330    
   5.00000000       0.00000000      -10.0000000       190.449799      -2.40973330    
   4.91481400      0.647047520      -9.00000000       263.831055      -2.52611279    
   4.91481400      0.647047520      -8.00000000       263.831055      -2.52611279    
   5.00000000       0.00000000      -8.00000000       263.831055      -2.52611279    
   5.00000000       0.00000000      -9.00000000       263.831055      -2.52611279    
   4.91481400      0.647047520      -8.00000000       306.425262      -3.07700086    
   4.91481400      0.647047520      -7.00000000       306.425262      -3.07700086    
   5.00000000       0.00000000      -7.00000000       306.425262      -3.07700086    
   5.00000000       0.00000000      -8.00000000       306.425262      -3.07700086    
   4.91481400      0.647047520      -7.00000000       455.722473       2.77968884    
   4.91481400      0.647047520      -6.00000000       455.722473       2.77968884    
   5.00000000       0.00000000      -6.00000000       455.722473       2.77968884    
   5.00000000       0.00000000      -7.00000000       455.722473       2.77968884    
   4.91481400      0.647047520      -6.00000000       689.618835       2.59661245    
   4.91481400      0.647047520      -5.00000000       689.618835       2.59661245    
   5.00000000       0.00000000      -5.00000000       689.618835       2.59661245    
   5.00000000       0.00000000      -6.00000000       689.618835       2.59661245    
   4.91481400      0.647047520      -5.00000000       982.861084       2.54674602    
   4.91481400      0.647047520      -4.00000000       982.861084       2.54674602    
   5.00000000       0.00000000      -4.00000000       982.861084       2.54674602    
   5.00000000       0.00000000      -5.00000000       982.861084       2.54674602    
   4.91481400      0.647047520      -4.00000000       1338.70374       2.56341147    
   4.91481400      0.647047520      -3.00000000       1338.70374       2.56341147    
   5.00000000       0.00000000      -3.00000000       1338.70374       2.56341147    
   5.00000000       0.00000000      -4.00000000       1338.70374       2.56341147    
   4.91481400      0.647047520      -3.00000000       1784.66833       2.61380625    
   4.91481400      0.647047520      -2.00000000       1784.66833       2.61380625    
   5.00000000       0.00000000      -2.00000000       1784.66833       2.61380625    
   5.00000000       0.00000000      -3.00000000       1784.66833       2.61380625    
   4.91481400      0.647047520      -2.00000000       2374.96655       2.67434692    
   4.91481400      0.647047520      -1.00000000       2374.96655       2.67434692    
   5.00000000       0.00000000      -1.00000000       2374.96655       2.67434692    
   5.00000000       0.00000000      -2.00000000       2374.96655       2.67434692    
   4.91481400      0.647047520      -1.00000000       3184.21582       2.72516298    
   4.91481400      0.647047520       0.00000000       3184.21582       2.72516298    
   5.00000000       0.00000000       0.00000000       3184.21582       2.72516298    
   5.00000000       0.00000000      -1.00000000       3184.21582       2.72516298    
   4.33012676       2.50000000      -10.0000000       1032.75037      -2.66029263    
   4.33012676       2.50000000      -9.00000000       1032.75037      -2.66029263    
   4.57987785       1.89704800      -9.00000000       1032.75037      -2.66029263    
   4.57987785       1.89704800      -10.0000000       1032.75037      -2.66029263    
   4.33012676       2.50000000      -9.00000000       1595.03931      -2.62407851    
   4.33012676       2.50000000      -8.00000000       1595.03931      -2.62407851    
   4.57987785       1.89704800      -8.00000000       1595.03931      -2.62407851    
   4.57987785       1.89704800      -9.00000000       1595.03931      -2.62407851    
   4.33012676       2.50000000      -8.00000000       1971.68835      -3.07357240    
   4.33012676       2.50000000      -7.00000000       1971.68835      -3.07357240    
   4.57987785       1.89704800      -7.00000000       1971.68835      -3.07357240    
   4.57987785       1.89704800      -8.00000000       1971.68835      -3.07357240    
   4.33012676       2.50000000      -7.00000000       2864.98975       2.84680724    
   4.33012676       2.50000000      -6.00000000       2864.98975       2.84680724    
   4.57987785       1.89704800      -6.00000000       2864.98975       2.84680724    
   4.57987785       1.89704800      -7.00000000       2864.98975       2.84680724    
   4.33012676       2.50000000      -6.00000000       4239.01270       2.67876959    
   4.33012676       2.50000000      -5.00000000       4239.01270       2.67876959    
   4.57987785       1.89704800      -5.00000000       4239.01270       2.67876959    
   4.57987785       1.89704800      -6.00000000       4239.01270       2.67876959    
   4.33012676       2.50000000      -5.00000000       6002.26904       2.63066626    
   4.33012676       2.50000000      -4.00000000       6002.26904       2.63066626    
   4.57987785       1.89704800      -4.00000000       6002.26904       2.63066626    
   4.57987785       1.89704800      -5.00000000       6002.26904       2.63066626    
   4.33012676       2.50000000      -4.00000000       8193.55273       2.64655304    
   4.33012676       2.50000000      -3.00000000       8193.55273       2.64655304    
   4.57987785       1.89704800      -3.00000000       8193.55273       2.64655304    
   4.57987785       1.89704800      -4.00000000       8193.55273       2.64655304    
   4.33012676       2.50000000      -3.00000000       11001.0020       2.69373226    
   4.33012676       2.50000000      -2.00000000       11001.0020       2.69373226    
   4.57987785       1.89704800      -2.00000000       11001.0020       2.69373226    
   4.57987785       1.89704800      -3.00000000       11001.0020       2.69373226    
   4.33012676       2.50000000      -2.00000000       14763.8535       2.74837232    
   4.33012676       2.50000000      -1.00000000       14763.8535       2.74837232    
   4.57987785       1.89704800      -1.00000000       14763.8535       2.74837232    
   4.57987785       1.89704800      -2.00000000       14763.8535       2.74837232    
   4.33012676       2.50000000      -1.00000000       19957.5801       2.79050064    
   4.33012676       2.50000000       0.00000000       19957.5801       2.79050064    
   4.57987785       1.89704800       0.00000000       19957.5801       2.79050064    
   4.57987785       1.89704800      -1.00000000       19957.5801       2.79050064    
   4.57987785       1.89704800      -10.0000000       798.312500      -2.57654524    
   4.57987785       1.89704800      -9.00000000       798.312500      -2.57654524    
   4.82962894       1.29409504      -9.00000000       798.312500      -2.57654524    
   4.82962894       1.29409504      -10.0000000       798.312500      -2.57654524    
   4.57987785       1.89704800      -9.00000000       1197.52905      -2.59360290    
   4.57987785       1.89704800      -8.00000000       1197.52905      -2.59360290    
   4.82962894       1.29409504      -8.00000000       1197.52905      -2.59360290    
   4.82962894       1.29409504      -9.00000000       1197.52905      -2.59360290    
   4.57987785       1.89704800      -8.00000000       1453.96851      -3.07459497    
   4.57987785       1.89704800      -7.00000000       1453.96851      -3.07459497    
   4.82962894       1.29409504      -7.00000000       1453.96851      -3.07459497    
   4.82962894       1.29409504      -8.00000000       1453.96851      -3.07459497    
   4.57987785       1.89704800      -7.00000000       2126.50317       2.82647943    
   4.57987785       1.89704800      -6.00000000       2126.50317       2.82647943    
   4.82962894       1.29409504      -6.00000000       2126.50317       2.82647943    
   4.82962894       1.29409504      -7.00000000       2126.50317       2.82647943    
   4.57987785       1.89704800      -6.00000000       3167.26318       2.65349650    
   4.57987785       1.89704800      -5.00000000       3167.26318       2.65349650    
   4.82962894       1.29409504      -5.00000000       3167.26318       2.65349650    
   4.82962894       1.29409504      -6.00000000       3167.26318       2.65349650    
   4.57987785       1.89704800      -5.00000000       4493.59766       2.60473442    
   4.57987785       1.89704800      -4.00000000       4493.59766       2.60473442    
   4.82962894       1.29409504      -4.00000000       4493.59766       2.60473442    
   4.82962894       1.29409504      -5.00000000       4493.59766       2.60473442    
   4.57987785       1.89704800      -4.00000000       6129.98682       2.62090111    
   4.57987785       1.89704800      -3.00000000       6129.98682       2.62090111    
   4.82962894       1.29409504      -3.00000000       6129.98682       2.62090111    
   4.82962894       1.29409504      -4.00000000       6129.98682       2.62090111    
   4.57987785       1.89704800      -3.00000000       8212.85645       2.66919398    
   4.57987785       1.89704800      -2.00000000       8212.85645       2.66919398    
   4.82962894       1.29409504      -2.00000000       8212.85645       2.66919398    
   4.82962894       1.29409504      -3.00000000       8212.85645       2.66919398    
   4.57987785       1.89704800      -2.00000000       10994.6553       2.72577691    
   4.57987785       1.89704800      -1.00000000       10994.6553       2.72577691    
   4.82962894       1.29409504      -1.00000000       10994.6553       2.72577691    
   4.82962894       1.29409504      -2.00000000       10994.6553       2.72577691    
   4.57987785       1.89704800      -1.00000000       14827.2754       2.77066827    
   4.57987785       1.89704800       0.00000000       14827.2754       2.77066827    
   4.82962894       1.29409504       0.00000000       14827.2754       2.77066827    
   4.82962894       1.29409504      -1.00000000       14827.2754       2.77066827    
   3.53553391       3.53553391      -10.0000000       1556.22900      -2.64458275    
   3.53553391       3.53553391      -9.00000000       1556.22900      -2.64458275    
   3.93283010       3.01776695      -9.00000000       1556.22900      -2.64458275    
   3.93283010       3.01776695      -10.0000000       1556.22900      -2.64458275    
   3.53553391       3.53553391      -9.00000000       2391.67822      -2.61849141    
   3.53553391       3.53553391      -8.00000000       2391.67822      -2.61849141    
   3.93283010       3.01776695      -8.00000000       2391.67822      -2.61849141    
   3.93283010       3.01776695      -9.00000000       2391.67822      -2.61849141    
   3.53553391       3.53553391      -8.00000000       2947.00391      -3.07375693    
   3.53553391       3.53553391      -7.00000000       2947.00391      -3.07375693    
   3.93283010       3.01776695      -7.00000000       2947.00391      -3.07375693    
   3.93283010       3.01776695      -8.00000000       2947.00391      -3.07375693    
   3.53553391       3.53553391      -7.00000000       4287.10254       2.84311700    
   3.53553391       3.53553391      -6.00000000       4287.10254       2.84311700    
   3.93283010       3.01776695      -6.00000000       4287.10254       2.84311700    
   3.93283010       3.01776695      -7.00000000       4287.10254       2.84311700    
   3.53553391       3.53553391      -6.00000000       6350.70605       2.67415595    
   3.53553391       3.53553391      -5.00000000       6350.70605       2.67415595    
   3.93283010       3.01776695      -5.00000000       6350.70605       2.67415595    
   3.93283010       3.01776695      -6.00000000       6350.70605       2.67415595    
   3.53553391       3.53553391      -5.00000000       8995.56738       2.62592554    
   3.53553391       3.53553391      -4.00000000       8995.56738       2.62592554    
   3.93283010       3.01776695      -4.00000000       8995.56738       2.62592554    
   3.93283010       3.01776695      -5.00000000       8995.56738       2.62592554    
   3.53553391       3.53553391      -4.00000000       12278.1367       2.64186597    
   3.53553391       3.53553391      -3.00000000       12278.1367       2.64186597    
   3.93283010       3.01776695      -3.00000000       12278.1367       2.64186597    
   3.93283010       3.01776695      -4.00000000       12278.1367       2.64186597    
   3.53553391       3.53553391      -3.00000000       16478.7930       2.68925595    
   3.53553391       3.53553391      -2.00000000       16478.7930       2.68925595    
   3.93283010       3.01776695      -2.00000000       16478.7930       2.68925595    
   3.93283010       3.01776695      -3.00000000       16478.7930       2.68925595    
   3.53553391       3.53553391      -2.00000000       22105.4160       2.74425888    
   3.53553391       3.53553391      -1.00000000       22105.4160       2.74425888    
   3.93283010       3.01776695      -1.00000000       22105.4160       2.74425888    
   3.93283010       3.01776695      -2.00000000       22105.4160       2.74425888    
   3.53553391       3.53553391      -1.00000000       29869.2207       2.78689718    
   3.53553391       3.53553391       0.00000000       29869.2207       2.78689718    
   3.93283010       3.01776695       0.00000000       29869.2207       2.78689718    
   3.93283010       3.01776695      -1.00000000       29869.2207       2.78689718    
   3.93283010       3.01776695      -10.0000000       1354.78894      -2.59988427    
   3.93283010       3.01776695      -9.00000000       1354.78894      -2.59988427    
   4.33012676       2.50000000      -9.00000000       1354.78894      -2.59988427    
   4.33012676       2.50000000      -10.0000000       1354.78894      -2.59988427    
   3.93283010       3.01776695      -9.00000000       2050.30176      -2.60227680    
   3.93283010       3.01776695      -8.00000000       2050.30176      -2.60227680    
   4.33012676       2.50000000      -8.00000000       2050.30176      -2.60227680    
   4.33012676       2.50000000      -9.00000000       2050.30176      -2.60227680    
   3.93283010       3.01776695      -8.00000000       2502.42871      -3.07429862    
   3.93283010       3.01776695      -7.00000000       2502.42871      -3.07429862    
   4.33012676       2.50000000      -7.00000000       2502.42871      -3.07429862    
   4.33012676       2.50000000      -8.00000000       2502.42871      -3.07429862    
   3.93283010       3.01776695      -7.00000000       3652.92944       2.83231449    
   3.93283010       3.01776695      -6.00000000       3652.92944       2.83231449    
   4.33012676       2.50000000      -6.00000000       3652.92944       2.83231449    
   4.33012676       2.50000000      -7.00000000       3652.92944       2.83231449    
   3.93283010       3.01776695      -6.00000000       5430.32324       2.66071677    
   3.93283010       3.01776695      -5.00000000       5430.32324       2.66071677    
   4.33012676       2.50000000      -5.00000000       5430.32324       2.66071677    
   4.33012676       2.50000000      -6.00000000       5430.32324       2.66071677    
   3.93283010       3.01776695      -5.00000000       7699.96777       2.61213183    
   3.93283010       3.01776695      -4.00000000       7699.96777       2.61213183    
   4.33012676       2.50000000      -4.00000000       7699.96777       2.61213183    
   4.33012676       2.50000000      -5.00000000       7699.96777       2.61213183    
   3.93283010       3.01776695      -4.00000000       10506.0156       2.62822294    
   3.93283010       3.01776695      -3.00000000       10506.0156       2.62822294    
   4.33012676       2.50000000      -3.00000000       10506.0156       2.62822294    
   4.33012676       2.50000000      -4.00000000       10506.0156       2.62822294    
   3.93283010       3.01776695      -3.00000000       14084.4424       2.67620826    
   3.93283010       3.01776695      -2.00000000       14084.4424       2.67620826    
   4.33012676       2.50000000      -2.00000000       14084.4424       2.67620826    
   4.33012676       2.50000000      -3.00000000       14084.4424       2.67620826    
   3.93283010       3.01776695      -2.00000000       18868.6074       2.73224783    
   3.93283010       3.01776695      -1.00000000       18868.6074       2.73224783    
   4.33012676       2.50000000      -1.00000000       18868.6074       2.73224783    
   4.33012676       2.50000000      -2.00000000       18868.6074       2.73224783    
   3.93283010       3.01776695      -1.00000000       25463.5703       2.77635765    
   3.93283010       3.01776695       0.00000000       25463.5703       2.77635765    
   4.33012676       2.50000000       0.00000000       25463.5703       2.77635765    
   4.33012676       2.50000000      -1.00000000       25463.5703       2.77635765    
   2.50000000       4.33012676      -10.0000000       1973.84302      -2.63636637    
   2.50000000       4.33012676      -9.00000000       1973.84302      -2.63636637    
   3.01776695       3.93283010      -9.00000000       1973.84302      -2.63636637    
   3.01776695       3.93283010      -10.0000000       1973.84302      -2.63636637    
   2.50000000       4.33012676      -9.00000000       3025.36597      -2.61554790    
   2.50000000       4.33012676      -8.00000000       3025.36597      -2.61554790    
   3.01776695       3.93283010      -8.00000000       3025.36597      -2.61554790    
   3.01776695       3.93283010      -9.00000000       3025.36597      -2.61554790    
   2.50000000       4.33012676      -8.00000000       3721.48657      -3.07385468    
   2.50000000       4.33012676      -7.00000000       3721.48657      -3.07385468    
   3.01776695       3.93283010      -7.00000000       3721.48657      -3.07385468    
   3.01776695       3.93283010      -8.00000000       3721.48657      -3.07385468    
   2.50000000       4.33012676      -7.00000000       5417.08984       2.84116483    
   2.50000000       4.33012676      -6.00000000       5417.08984       2.84116483    
   3.01776695       3.93283010      -6.00000000       5417.08984       2.84116483    
   3.01776695       3.93283010      -7.00000000       5417.08984       2.84116483    
   2.50000000       4.33012676      -6.00000000       8029.67822       2.67172074    
   2.50000000       4.33012676      -5.00000000       8029.67822       2.67172074    
   3.01776695       3.93283010      -5.00000000       8029.67822       2.67172074    
   3.01776695       3.93283010      -6.00000000       8029.67822       2.67172074    
   2.50000000       4.33012676      -5.00000000       11375.9336       2.62342358    
   2.50000000       4.33012676      -4.00000000       11375.9336       2.62342358    
   3.01776695       3.93283010      -4.00000000       11375.9336       2.62342358    
   3.01776695       3.93283010      -5.00000000       11375.9336       2.62342358    
   2.50000000       4.33012676      -4.00000000       15526.1318       2.63939238    
   2.50000000       4.33012676      -3.00000000       15526.1318       2.63939238    
   3.01776695       3.93283010      -3.00000000       15526.1318       2.63939238    
   3.01776695       3.93283010      -4.00000000       15526.1318       2.63939238    
   2.50000000       4.33012676      -3.00000000       20833.7695       2.68689227    
   2.50000000       4.33012676      -2.00000000       20833.7695       2.68689227    
   3.01776695       3.93283010      -2.00000000       20833.7695       2.68689227    
   3.01776695       3.93283010      -3.00000000       20833.7695       2.68689227    
   2.50000000       4.33012676      -2.00000000       27940.7539       2.74208546    
   2.50000000       4.33012676      -1.00000000       27940.7539       2.74208546    
   3.01776695       3.93283010      -1.00000000       27940.7539       2.74208546    
   3.01776695       3.93283010      -2.00000000       27940.7539       2.74208546    
   2.50000000       4.33012676      -1.00000000       37745.5156       2.78499198    
   2.50000000       4.33012676       0.00000000       37745.5156       2.78499198    
   3.01776695       3.93283010       0.00000000       37745.5156       2.78499198    
   3.01776695       3.93283010      -1.00000000       37745.5156       2.78499198    
   3.01776695       3.93283010      -10.0000000       1819.24805      -2.61012816    
   3.01776695       3.93283010      -9.00000000       1819.24805      -2.61012816    
   3.53553391       3.53553391      -9.00000000       1819.24805      -2.61012816    
   3.53553391       3.53553391      -10.0000000       1819.24805      -2.61012816    
   3.01776695       3.93283010      -9.00000000       2763.41260      -2.60603762    
   3.01776695       3.93283010      -8.00000000       2763.41260      -2.60603762    
   3.53553391       3.53553391      -8.00000000       2763.41260      -2.60603762    
   3.53553391       3.53553391      -9.00000000       2763.41260      -2.60603762    
   3.01776695       3.93283010      -8.00000000       3380.35254      -3.07417297    
   3.01776695       3.93283010      -7.00000000       3380.35254      -3.07417297    
   3.53553391       3.53553391      -7.00000000       3380.35254      -3.07417297    
   3.53553391       3.53553391      -8.00000000       3380.35254      -3.07417297    
   3.01776695       3.93283010      -7.00000000       4930.46582       2.83483100    
   3.01776695       3.93283010      -6.00000000       4930.46582       2.83483100    
   3.53553391       3.53553391      -6.00000000       4930.46582       2.83483100    
   3.53553391       3.53553391      -7.00000000       4930.46582       2.83483100    
   3.01776695       3.93283010      -6.00000000       7323.43066       2.66383934    
   3.01776695       3.93283010      -5.00000000       7323.43066       2.66383934    
   3.53553391       3.53553391      -5.00000000       7323.43066       2.66383934    
   3.53553391       3.53553391      -6.00000000       7323.43066       2.66383934    
   3.01776695       3.93283010      -5.00000000       10381.7676       2.61533451    
   3.01776695       3.93283010      -4.00000000       10381.7676       2.61533451    
   3.53553391       3.53553391      -4.00000000       10381.7676       2.61533451    
   3.53553391       3.53553391      -5.00000000       10381.7676       2.61533451    
   3.01776695       3.93283010      -4.00000000       14166.3086       2.63139129    
   3.01776695       3.93283010      -3.00000000       14166.3086       2.63139129    
   3.53553391       3.53553391      -3.00000000       14166.3086       2.63139129    
   3.53553391       3.53553391      -4.00000000       14166.3086       2.63139129    
   3.01776695       3.93283010      -3.00000000       18996.4785       2.67924094    
   3.01776695       3.93283010      -2.00000000       18996.4785       2.67924094    
   3.53553391       3.53553391      -2.00000000       18996.4785       2.67924094    
   3.53553391       3.53553391      -3.00000000       18996.4785       2.67924094    
   3.01776695       3.93283010      -2.00000000       25457.0156       2.73504257    
   3.01776695       3.93283010      -1.00000000       25457.0156       2.73504257    
   3.53553391       3.53553391      -1.00000000       25457.0156       2.73504257    
   3.53553391       3.53553391      -2.00000000       25457.0156       2.73504257    
   3.01776695       3.93283010      -1.00000000       34364.9258       2.77881217    
   3.01776695       3.93283010       0.00000000       34364.9258       2.77881217    
   3.53553391       3.53553391       0.00000000       34364.9258       2.77881217    
   3.53553391       3.53553391      -1.00000000       34364.9258       2.77881217    
   1.29409504       4.82962894      -10.0000000       2257.03638      -2.63069916    
   1.29409504       4.82962894      -9.00000000       2257.03638      -2.63069916    
   1.89704800       4.57987785      -9.00000000       2257.03638      -2.63069916    
   1.89704800       4.57987785      -10.0000000       2257.03638      -2.63069916    
   1.29409504       4.82962894      -9.00000000       3452.89429      -2.61350894    
   1.29409504       4.82962894      -8.00000000       3452.89429      -2.61350894    
   1.89704800       4.57987785      -8.00000000       3452.89429      -2.61350894    
   1.89704800       4.57987785      -9.00000000       3452.89429      -2.61350894    
   1.29409504       4.82962894      -8.00000000       4242.35938      -3.07392240    
   1.29409504       4.82962894      -7.00000000       4242.35938      -3.07392240    
   1.89704800       4.57987785      -7.00000000       4242.35938      -3.07392240    
   1.89704800       4.57987785      -8.00000000       4242.35938      -3.07392240    
   1.29409504       4.82962894      -7.00000000       6177.92285       2.83981061    
   1.29409504       4.82962894      -6.00000000       6177.92285       2.83981061    
   1.89704800       4.57987785      -6.00000000       6177.92285       2.83981061    
   1.89704800       4.57987785      -7.00000000       6177.92285       2.83981061    
   1.29409504       4.82962894      -6.00000000       9161.46973       2.67003298    
   1.29409504       4.82962894      -5.00000000       9161.46973       2.67003298    
   1.89704800       4.57987785      -5.00000000       9161.46973       2.67003298    
   1.89704800       4.57987785      -6.00000000       9161.46973       2.67003298    
   1.29409504       4.82962894      -5.00000000       12981.0996       2.62169051    
   1.29409504       4.82962894      -4.00000000       12981.0996       2.62169051    
   1.89704800       4.57987785      -4.00000000       12981.0996       2.62169051    
   1.89704800       4.57987785      -5.00000000       12981.0996       2.62169051    
   1.29409504       4.82962894      -4.00000000       17716.0938       2.63767815    
   1.29409504       4.82962894      -3.00000000       17716.0938       2.63767815    
   1.89704800       4.57987785      -3.00000000       17716.0938       2.63767815    