 VARIABLES="X" "Y" "Z" "abs(p) (Pa)" "angle(p) (rad)"
ZONE N=   1080,E =     600, F=FEPOINT, ET=QUADRILATERAL
   4.82962894       1.29409504      -10.0000000       1602.67395       1.58396316    
   4.82962894       1.29409504      -9.00000000       1602.67395       1.58396316    
   4.91481400      0.647047520      -9.00000000       1602.67395       1.58396316    
   4.91481400      0.647047520      -10.0000000       1602.67395       1.58396316    
   4.82962894       1.29409504      -9.00000000       993.314636       1.60014963    
   4.82962894       1.29409504      -8.00000000       993.314636       1.60014963    
   4.91481400      0.647047520      -8.00000000       993.314636       1.60014963    
   4.91481400      0.647047520      -9.00000000       993.314636       1.60014963    
   4.82962894       1.29409504      -8.00000000       674.511353       1.63081026    
   4.82962894       1.29409504      -7.00000000       674.511353       1.63081026    
   4.91481400      0.647047520      -7.00000000       674.511353       1.63081026    
   4.91481400      0.647047520      -8.00000000       674.511353       1.63081026    
   4.82962894       1.29409504      -7.00000000       447.452515       1.68903983    
   4.82962894       1.29409504      -6.00000000       447.452515       1.68903983    
   4.91481400      0.647047520      -6.00000000       447.452515       1.68903983    
   4.91481400      0.647047520      -7.00000000       447.452515       1.68903983    
   4.82962894       1.29409504      -6.00000000       268.136261       1.82478476    
   4.82962894       1.29409504      -5.00000000       268.136261       1.82478476    
   4.91481400      0.647047520      -5.00000000       268.136261       1.82478476    
   4.91481400      0.647047520      -6.00000000       268.136261       1.82478476    
   4.82962894       1.29409504      -5.00000000       132.511276       2.30226111    
   4.82962894       1.29409504      -4.00000000       132.511276       2.30226111    
   4.91481400      0.647047520      -4.00000000       132.511276       2.30226111    
   4.91481400      0.647047520      -5.00000000       132.511276       2.30226111    
   4.82962894       1.29409504      -4.00000000       126.784760      -2.73700547    
   4.82962894       1.29409504      -3.00000000       126.784760      -2.73700547    
   4.91481400      0.647047520      -3.00000000       126.784760      -2.73700547    
   4.91481400      0.647047520      -4.00000000       126.784760      -2.73700547    
   4.82962894       1.29409504      -3.00000000       244.947235      -2.23462582    
   4.82962894       1.29409504      -2.00000000       244.947235      -2.23462582    
   4.91481400      0.647047520      -2.00000000       244.947235      -2.23462582    
   4.91481400      0.647047520      -3.00000000       244.947235      -2.23462582    
   4.82962894       1.29409504      -2.00000000       387.424377      -2.10368347    
   4.82962894       1.29409504      -1.00000000       387.424377      -2.10368347    
   4.91481400      0.647047520      -1.00000000       387.424377      -2.10368347    
   4.91481400      0.647047520      -2.00000000       387.424377      -2.10368347    
   4.82962894       1.29409504      -1.00000000       540.540161      -2.06739831    
   4.82962894       1.29409504       0.00000000       540.540161      -2.06739831    
   4.91481400      0.647047520       0.00000000       540.540161      -2.06739831    
   4.91481400      0.647047520      -1.00000000       540.540161      -2.06739831    
   4.91481400      0.647047520      -10.0000000       1602.67334       1.58396316    
   4.91481400      0.647047520      -9.00000000       1602.67334       1.58396316    
   5.00000000       0.00000000      -9.00000000       1602.67334       1.58396316    
   5.00000000       0.00000000      -10.0000000       1602.67334       1.58396316    
   4.91481400      0.647047520      -9.00000000       993.314087       1.60014975    
   4.91481400      0.647047520      -8.00000000       993.314087       1.60014975    
   5.00000000       0.00000000      -8.00000000       993.314087       1.60014975    
   5.00000000       0.00000000      -9.00000000       993.314087       1.60014975    
   4.91481400      0.647047520      -8.00000000       674.511719       1.63081026    
   4.91481400      0.647047520      -7.00000000       674.511719       1.63081026    
   5.00000000       0.00000000      -7.00000000       674.511719       1.63081026    
   5.00000000       0.00000000      -8.00000000       674.511719       1.63081026    
   4.91481400      0.647047520      -7.00000000       447.452271       1.68903995    
   4.91481400      0.647047520      -6.00000000       447.452271       1.68903995    
   5.00000000       0.00000000      -6.00000000       447.452271       1.68903995    
   5.00000000       0.00000000      -7.00000000       447.452271       1.68903995    
   4.91481400      0.647047520      -6.00000000       268.136383       1.82478499    
   4.91481400      0.647047520      -5.00000000       268.136383       1.82478499    
   5.00000000       0.00000000      -5.00000000       268.136383       1.82478499    
   5.00000000       0.00000000      -6.00000000       268.136383       1.82478499    
   4.91481400      0.647047520      -5.00000000       132.511337       2.30226064    
   4.91481400      0.647047520      -4.00000000       132.511337       2.30226064    
   5.00000000       0.00000000      -4.00000000       132.511337       2.30226064    
   5.00000000       0.00000000      -5.00000000       132.511337       2.30226064    
   4.91481400      0.647047520      -4.00000000       126.784729      -2.73700452    
   4.91481400      0.647047520      -3.00000000       126.784729      -2.73700452    
   5.00000000       0.00000000      -3.00000000       126.784729      -2.73700452    
   5.00000000       0.00000000      -4.00000000       126.784729      -2.73700452    
   4.91481400      0.647047520      -3.00000000       244.947159      -2.23462510    
   4.91481400      0.647047520      -2.00000000       244.947159      -2.23462510    
   5.00000000       0.00000000      -2.00000000       244.947159      -2.23462510    
   5.00000000       0.00000000      -3.00000000       244.947159      -2.23462510    
   4.91481400      0.647047520      -2.00000000       387.424225      -2.10368371    
   4.91481400      0.647047520      -1.00000000       387.424225      -2.10368371    
   5.00000000       0.00000000      -1.00000000       387.424225      -2.10368371    
   5.00000000       0.00000000      -2.00000000       387.424225      -2.10368371    
   4.91481400      0.647047520      -1.00000000       540.540283      -2.06739855    
   4.91481400      0.647047520       0.00000000       540.540283      -2.06739855    
   5.00000000       0.00000000       0.00000000       540.540283      -2.06739855    
   5.00000000       0.00000000      -1.00000000       540.540283      -2.06739855    
   4.33012676       2.50000000      -10.0000000       1602.67432       1.58396316    
   4.33012676       2.50000000      -9.00000000       1602.67432       1.58396316    
   4.57987785       1.89704800      -9.00000000       1602.67432       1.58396316    
   4.57987785       1.89704800      -10.0000000       1602.67432       1.58396316    
   4.33012676       2.50000000      -9.00000000       993.314087       1.60014975    
   4.33012676       2.50000000      -8.00000000       993.314087       1.60014975    
   4.57987785       1.89704800      -8.00000000       993.314087       1.60014975    
   4.57987785       1.89704800      -9.00000000       993.314087       1.60014975    
   4.33012676       2.50000000      -8.00000000       674.512085       1.63081026    
   4.33012676       2.50000000      -7.00000000       674.512085       1.63081026    
   4.57987785       1.89704800      -7.00000000       674.512085       1.63081026    
   4.57987785       1.89704800      -8.00000000       674.512085       1.63081026    
   4.33012676       2.50000000      -7.00000000       447.453033       1.68903959    
   4.33012676       2.50000000      -6.00000000       447.453033       1.68903959    
   4.57987785       1.89704800      -6.00000000       447.453033       1.68903959    
   4.57987785       1.89704800      -7.00000000       447.453033       1.68903959    
   4.33012676       2.50000000      -6.00000000       268.136017       1.82478523    
   4.33012676       2.50000000      -5.00000000       268.136017       1.82478523    
   4.57987785       1.89704800      -5.00000000       268.136017       1.82478523    
   4.57987785       1.89704800      -6.00000000       268.136017       1.82478523    
   4.33012676       2.50000000      -5.00000000       132.511353       2.30226231    
   4.33012676       2.50000000      -4.00000000       132.511353       2.30226231    
   4.57987785       1.89704800      -4.00000000       132.511353       2.30226231    
   4.57987785       1.89704800      -5.00000000       132.511353       2.30226231    
   4.33012676       2.50000000      -4.00000000       126.784935      -2.73700500    
   4.33012676       2.50000000      -3.00000000       126.784935      -2.73700500    
   4.57987785       1.89704800      -3.00000000       126.784935      -2.73700500    
   4.57987785       1.89704800      -4.00000000       126.784935      -2.73700500    
   4.33012676       2.50000000      -3.00000000       244.947083      -2.23462510    
   4.33012676       2.50000000      -2.00000000       244.947083      -2.23462510    
   4.57987785       1.89704800      -2.00000000       244.947083      -2.23462510    
   4.57987785       1.89704800      -3.00000000       244.947083      -2.23462510    
   4.33012676       2.50000000      -2.00000000       387.424042      -2.10368347    
   4.33012676       2.50000000      -1.00000000       387.424042      -2.10368347    
   4.57987785       1.89704800      -1.00000000       387.424042      -2.10368347    
   4.57987785       1.89704800      -2.00000000       387.424042      -2.10368347    
   4.33012676       2.50000000      -1.00000000       540.539917      -2.06739926    
   4.33012676       2.50000000       0.00000000       540.539917      -2.06739926    
   4.57987785       1.89704800       0.00000000       540.539917      -2.06739926    
   4.57987785       1.89704800      -1.00000000       540.539917      -2.06739926    
   4.57987785       1.89704800      -10.0000000       1602.67224       1.58396316    
   4.57987785       1.89704800      -9.00000000       1602.67224       1.58396316    
   4.82962894       1.29409504      -9.00000000       1602.67224       1.58396316    
   4.82962894       1.29409504      -10.0000000       1602.67224       1.58396316    
   4.57987785       1.89704800      -9.00000000       993.313599       1.60014975    
   4.57987785       1.89704800      -8.00000000       993.313599       1.60014975    
   4.82962894       1.29409504      -8.00000000       993.313599       1.60014975    
   4.82962894       1.29409504      -9.00000000       993.313599       1.60014975    
   4.57987785       1.89704800      -8.00000000       674.511475       1.63081026    
   4.57987785       1.89704800      -7.00000000       674.511475       1.63081026    
   4.82962894       1.29409504      -7.00000000       674.511475       1.63081026    
   4.82962894       1.29409504      -8.00000000       674.511475       1.63081026    
   4.57987785       1.89704800      -7.00000000       447.453186       1.68903971    
   4.57987785       1.89704800      -6.00000000       447.453186       1.68903971    
   4.82962894       1.29409504      -6.00000000       447.453186       1.68903971    
   4.82962894       1.29409504      -7.00000000       447.453186       1.68903971    
   4.57987785       1.89704800      -6.00000000       268.135956       1.82478523    
   4.57987785       1.89704800      -5.00000000       268.135956       1.82478523    
   4.82962894       1.29409504      -5.00000000       268.135956       1.82478523    
   4.82962894       1.29409504      -6.00000000       268.135956       1.82478523    
   4.57987785       1.89704800      -5.00000000       132.511276       2.30226159    
   4.57987785       1.89704800      -4.00000000       132.511276       2.30226159    
   4.82962894       1.29409504      -4.00000000       132.511276       2.30226159    
   4.82962894       1.29409504      -5.00000000       132.511276       2.30226159    
   4.57987785       1.89704800      -4.00000000       126.784538      -2.73700547    
   4.57987785       1.89704800      -3.00000000       126.784538      -2.73700547    
   4.82962894       1.29409504      -3.00000000       126.784538      -2.73700547    
   4.82962894       1.29409504      -4.00000000       126.784538      -2.73700547    
   4.57987785       1.89704800      -3.00000000       244.947418      -2.23462486    
   4.57987785       1.89704800      -2.00000000       244.947418      -2.23462486    
   4.82962894       1.29409504      -2.00000000       244.947418      -2.23462486    
   4.82962894       1.29409504      -3.00000000       244.947418      -2.23462486    
   4.57987785       1.89704800      -2.00000000       387.424652      -2.10368347    
   4.57987785       1.89704800      -1.00000000       387.424652      -2.10368347    
   4.82962894       1.29409504      -1.00000000       387.424652      -2.10368347    
   4.82962894       1.29409504      -2.00000000       387.424652      -2.10368347    
   4.57987785       1.89704800      -1.00000000       540.540405      -2.06739855    
   4.57987785       1.89704800       0.00000000       540.540405      -2.06739855    
   4.82962894       1.29409504       0.00000000       540.540405      -2.06739855    
   4.82962894       1.29409504      -1.00000000       540.540405      -2.06739855    
   3.53553391       3.53553391      -10.0000000       1602.67273       1.58396316    
   3.53553391       3.53553391      -9.00000000       1602.67273       1.58396316    
   3.93283010       3.01776695      -9.00000000       1602.67273       1.58396316    
   3.93283010       3.01776695      -10.0000000       1602.67273       1.58396316    
   3.53553391       3.53553391      -9.00000000       993.313721       1.60014975    
   3.53553391       3.53553391      -8.00000000       993.313721       1.60014975    
   3.93283010       3.01776695      -8.00000000       993.313721       1.60014975    
   3.93283010       3.01776695      -9.00000000       993.313721       1.60014975    
   3.53553391       3.53553391      -8.00000000       674.511902       1.63081038    
   3.53553391       3.53553391      -7.00000000       674.511902       1.63081038    
   3.93283010       3.01776695      -7.00000000       674.511902       1.63081038    
   3.93283010       3.01776695      -8.00000000       674.511902       1.63081038    
   3.53553391       3.53553391      -7.00000000       447.452759       1.68903983    
   3.53553391       3.53553391      -6.00000000       447.452759       1.68903983    
   3.93283010       3.01776695      -6.00000000       447.452759       1.68903983    
   3.93283010       3.01776695      -7.00000000       447.452759       1.68903983    
   3.53553391       3.53553391      -6.00000000       268.136200       1.82478511    
   3.53553391       3.53553391      -5.00000000       268.136200       1.82478511    
   3.93283010       3.01776695      -5.00000000       268.136200       1.82478511    
   3.93283010       3.01776695      -6.00000000       268.136200       1.82478511    
   3.53553391       3.53553391      -5.00000000       132.511368       2.30226183    
   3.53553391       3.53553391      -4.00000000       132.511368       2.30226183    
   3.93283010       3.01776695      -4.00000000       132.511368       2.30226183    
   3.93283010       3.01776695      -5.00000000       132.511368       2.30226183    
   3.53553391       3.53553391      -4.00000000       126.784920      -2.73700595    
   3.53553391       3.53553391      -3.00000000       126.784920      -2.73700595    
   3.93283010       3.01776695      -3.00000000       126.784920      -2.73700595    
   3.93283010       3.01776695      -4.00000000       126.784920      -2.73700595    
   3.53553391       3.53553391      -3.00000000       244.947311      -2.23462391    
   3.53553391       3.53553391      -2.00000000       244.947311      -2.23462391    
   3.93283010       3.01776695      -2.00000000       244.947311      -2.23462391    
   3.93283010       3.01776695      -3.00000000       244.947311      -2.23462391    
   3.53553391       3.53553391      -2.00000000       387.424164      -2.10368252    
   3.53553391       3.53553391      -1.00000000       387.424164      -2.10368252    
   3.93283010       3.01776695      -1.00000000       387.424164      -2.10368252    
   3.93283010       3.01776695      -2.00000000       387.424164      -2.10368252    
   3.53553391       3.53553391      -1.00000000       540.541077      -2.06739974    
   3.53553391       3.53553391       0.00000000       540.541077      -2.06739974    
   3.93283010       3.01776695       0.00000000       540.541077      -2.06739974    
   3.93283010       3.01776695      -1.00000000       540.541077      -2.06739974    
   3.93283010       3.01776695      -10.0000000       1602.67358       1.58396316    
   3.93283010       3.01776695      -9.00000000       1602.67358       1.58396316    
   4.33012676       2.50000000      -9.00000000       1602.67358       1.58396316    
   4.33012676       2.50000000      -10.0000000       1602.67358       1.58396316    
   3.93283010       3.01776695      -9.00000000       993.314270       1.60014963    
   3.93283010       3.01776695      -8.00000000       993.314270       1.60014963    
   4.33012676       2.50000000      -8.00000000       993.314270       1.60014963    
   4.33012676       2.50000000      -9.00000000       993.314270       1.60014963    
   3.93283010       3.01776695      -8.00000000       674.511475       1.63081014    
   3.93283010       3.01776695      -7.00000000       674.511475       1.63081014    
   4.33012676       2.50000000      -7.00000000       674.511475       1.63081014    
   4.33012676       2.50000000      -8.00000000       674.511475       1.63081014    
   3.93283010       3.01776695      -7.00000000       447.452362       1.68903995    
   3.93283010       3.01776695      -6.00000000       447.452362       1.68903995    
   4.33012676       2.50000000      -6.00000000       447.452362       1.68903995    
   4.33012676       2.50000000      -7.00000000       447.452362       1.68903995    
   3.93283010       3.01776695      -6.00000000       268.136078       1.82478464    
   3.93283010       3.01776695      -5.00000000       268.136078       1.82478464    
   4.33012676       2.50000000      -5.00000000       268.136078       1.82478464    
   4.33012676       2.50000000      -6.00000000       268.136078       1.82478464    
   3.93283010       3.01776695      -5.00000000       132.511154       2.30226135    
   3.93283010       3.01776695      -4.00000000       132.511154       2.30226135    
   4.33012676       2.50000000      -4.00000000       132.511154       2.30226135    
   4.33012676       2.50000000      -5.00000000       132.511154       2.30226135    
   3.93283010       3.01776695      -4.00000000       126.784447      -2.73700500    
   3.93283010       3.01776695      -3.00000000       126.784447      -2.73700500    
   4.33012676       2.50000000      -3.00000000       126.784447      -2.73700500    
   4.33012676       2.50000000      -4.00000000       126.784447      -2.73700500    
   3.93283010       3.01776695      -3.00000000       244.947540      -2.23462653    
   3.93283010       3.01776695      -2.00000000       244.947540      -2.23462653    
   4.33012676       2.50000000      -2.00000000       244.947540      -2.23462653    
   4.33012676       2.50000000      -3.00000000       244.947540      -2.23462653    
   3.93283010       3.01776695      -2.00000000       387.424347      -2.10368395    
   3.93283010       3.01776695      -1.00000000       387.424347      -2.10368395    
   4.33012676       2.50000000      -1.00000000       387.424347      -2.10368395    
   4.33012676       2.50000000      -2.00000000       387.424347      -2.10368395    
   3.93283010       3.01776695      -1.00000000       540.540344      -2.06739807    
   3.93283010       3.01776695       0.00000000       540.540344      -2.06739807    
   4.33012676       2.50000000       0.00000000       540.540344      -2.06739807    
   4.33012676       2.50000000      -1.00000000       540.540344      -2.06739807    
   2.50000000       4.33012676      -10.0000000       1602.67334       1.58396316    
   2.50000000       4.33012676      -9.00000000       1602.67334       1.58396316    
   3.01776695       3.93283010      -9.00000000       1602.67334       1.58396316    
   3.01776695       3.93283010      -10.0000000       1602.67334       1.58396316    
   2.50000000       4.33012676      -9.00000000       993.314636       1.60014975    
   2.50000000       4.33012676      -8.00000000       993.314636       1.60014975    
   3.01776695       3.93283010      -8.00000000       993.314636       1.60014975    
   3.01776695       3.93283010      -9.00000000       993.314636       1.60014975    
   2.50000000       4.33012676      -8.00000000       674.512268       1.63081038    
   2.50000000       4.33012676      -7.00000000       674.512268       1.63081038    
   3.01776695       3.93283010      -7.00000000       674.512268       1.63081038    
   3.01776695       3.93283010      -8.00000000       674.512268       1.63081038    
   2.50000000       4.33012676      -7.00000000       447.452484       1.68903971    
   2.50000000       4.33012676      -6.00000000       447.452484       1.68903971    
   3.01776695       3.93283010      -6.00000000       447.452484       1.68903971    
   3.01776695       3.93283010      -7.00000000       447.452484       1.68903971    
   2.50000000       4.33012676      -6.00000000       268.136078       1.82478535    
   2.50000000       4.33012676      -5.00000000       268.136078       1.82478535    
   3.01776695       3.93283010      -5.00000000       268.136078       1.82478535    
   3.01776695       3.93283010      -6.00000000       268.136078       1.82478535    
   2.50000000       4.33012676      -5.00000000       132.511322       2.30226254    
   2.50000000       4.33012676      -4.00000000       132.511322       2.30226254    
   3.01776695       3.93283010      -4.00000000       132.511322       2.30226254    
   3.01776695       3.93283010      -5.00000000       132.511322       2.30226254    
   2.50000000       4.33012676      -4.00000000       126.784828      -2.73700595    
   2.50000000       4.33012676      -3.00000000       126.784828      -2.73700595    
   3.01776695       3.93283010      -3.00000000       126.784828      -2.73700595    
   3.01776695       3.93283010      -4.00000000       126.784828      -2.73700595    
   2.50000000       4.33012676      -3.00000000       244.947586      -2.23462462    
   2.50000000       4.33012676      -2.00000000       244.947586      -2.23462462    
   3.01776695       3.93283010      -2.00000000       244.947586      -2.23462462    
   3.01776695       3.93283010      -3.00000000       244.947586      -2.23462462    
   2.50000000       4.33012676      -2.00000000       387.424225      -2.10368347    
   2.50000000       4.33012676      -1.00000000       387.424225      -2.10368347    
   3.01776695       3.93283010      -1.00000000       387.424225      -2.10368347    
   3.01776695       3.93283010      -2.00000000       387.424225      -2.10368347    
   2.50000000       4.33012676      -1.00000000       540.540894      -2.06739902    
   2.50000000       4.33012676       0.00000000       540.540894      -2.06739902    
   3.01776695       3.93283010       0.00000000       540.540894      -2.06739902    
   3.01776695       3.93283010      -1.00000000       540.540894      -2.06739902    
   3.01776695       3.93283010      -10.0000000       1602.67334       1.58396316    
   3.01776695       3.93283010      -9.00000000       1602.67334       1.58396316    
   3.53553391       3.53553391      -9.00000000       1602.67334       1.58396316    
   3.53553391       3.53553391      -10.0000000       1602.67334       1.58396316    
   3.01776695       3.93283010      -9.00000000       993.314453       1.60014963    
   3.01776695       3.93283010      -8.00000000       993.314453       1.60014963    
   3.53553391       3.53553391      -8.00000000       993.314453       1.60014963    
   3.53553391       3.53553391      -9.00000000       993.314453       1.60014963    
   3.01776695       3.93283010      -8.00000000       674.510925       1.63081026    
   3.01776695       3.93283010      -7.00000000       674.510925       1.63081026    
   3.53553391       3.53553391      -7.00000000       674.510925       1.63081026    
   3.53553391       3.53553391      -8.00000000       674.510925       1.63081026    
   3.01776695       3.93283010      -7.00000000       447.453186       1.68903971    
   3.01776695       3.93283010      -6.00000000       447.453186       1.68903971    
   3.53553391       3.53553391      -6.00000000       447.453186       1.68903971    
   3.53553391       3.53553391      -7.00000000       447.453186       1.68903971    
   3.01776695       3.93283010      -6.00000000       268.136169       1.82478452    
   3.01776695       3.93283010      -5.00000000       268.136169       1.82478452    
   3.53553391       3.53553391      -5.00000000       268.136169       1.82478452    
   3.53553391       3.53553391      -6.00000000       268.136169       1.82478452    
   3.01776695       3.93283010      -5.00000000       132.511261       2.30226207    
   3.01776695       3.93283010      -4.00000000       132.511261       2.30226207    
   3.53553391       3.53553391      -4.00000000       132.511261       2.30226207    
   3.53553391       3.53553391      -5.00000000       132.511261       2.30226207    
   3.01776695       3.93283010      -4.00000000       126.784508      -2.73700500    
   3.01776695       3.93283010      -3.00000000       126.784508      -2.73700500    
   3.53553391       3.53553391      -3.00000000       126.784508      -2.73700500    
   3.53553391       3.53553391      -4.00000000       126.784508      -2.73700500    
   3.01776695       3.93283010      -3.00000000       244.947433      -2.23462534    
   3.01776695       3.93283010      -2.00000000       244.947433      -2.23462534    
   3.53553391       3.53553391      -2.00000000       244.947433      -2.23462534    
   3.53553391       3.53553391      -3.00000000       244.947433      -2.23462534    
   3.01776695       3.93283010      -2.00000000       387.424347      -2.10368395    
   3.01776695       3.93283010      -1.00000000       387.424347      -2.10368395    
   3.53553391       3.53553391      -1.00000000       387.424347      -2.10368395    
   3.53553391       3.53553391      -2.00000000       387.424347      -2.10368395    
   3.01776695       3.93283010      -1.00000000       540.540955      -2.06739926    
   3.01776695       3.93283010       0.00000000       540.540955      -2.06739926    
   3.53553391       3.53553391       0.00000000       540.540955      -2.06739926    
   3.53553391       3.53553391      -1.00000000       540.540955      -2.06739926    
   1.29409504       4.82962894      -10.0000000       1602.67322       1.58396316    
   1.29409504       4.82962894      -9.00000000       1602.67322       1.58396316    
   1.89704800       4.57987785      -9.00000000       1602.67322       1.58396316    
   1.89704800       4.57987785      -10.0000000       1602.67322       1.58396316    
   1.29409504       4.82962894      -9.00000000       993.315430       1.60014963    
   1.29409504       4.82962894      -8.00000000       993.315430       1.60014963    
   1.89704800       4.57987785      -8.00000000       993.315430       1.60014963    
   1.89704800       4.57987785      -9.00000000       993.315430       1.60014963    
   1.29409504       4.82962894      -8.00000000       674.511963       1.63081026    
   1.29409504       4.82962894      -7.00000000       674.511963       1.63081026    
   1.89704800       4.57987785      -7.00000000       674.511963       1.63081026    
   1.89704800       4.57987785      -8.00000000       674.511963       1.63081026    
   1.29409504       4.82962894      -7.00000000       447.452759       1.68903971    
   1.29409504       4.82962894      -6.00000000       447.452759       1.68903971    
   1.89704800       4.57987785      -6.00000000       447.452759       1.68903971    
   1.89704800       4.57987785      -7.00000000       447.452759       1.68903971    
   1.29409504       4.82962894      -6.00000000       268.135742       1.82478535    
   1.29409504       4.82962894      -5.00000000       268.135742       1.82478535    
   1.89704800       4.57987785      -5.00000000       268.135742       1.82478535    
   1.89704800       4.57987785      -6.00000000       268.135742       1.82478535    
   1.29409504       4.82962894      -5.00000000       132.511459       2.30226088    
   1.29409504       4.82962894      -4.00000000       132.511459       2.30226088    
   1.89704800       4.57987785      -4.00000000       132.511459       2.30226088    
   1.89704800       4.57987785      -5.00000000       132.511459       2.30226088    
   1.29409504       4.82962894      -4.00000000       126.784798      -2.73700571    
   1.29409504       4.82962894      -3.00000000       126.784798      -2.73700571    
   1.89704800       4.57987785      -3.00000000       126.784798      -2.73700571    