 VARIABLES="X" "Y" "Z" "abs(p) (Pa)" "angle(p) (rad)"
ZONE N=   1080,E =     600, F=FEPOINT, ET=QUADRILATERAL
   4.82962894       1.29409504      -10.0000000       1412.48315       2.86827469    
   4.82962894       1.29409504      -9.00000000       1412.48315       2.86827469    
   4.91481400      0.647047520      -9.00000000       1412.48315       2.86827469    
   4.91481400      0.647047520      -10.0000000       1412.48315       2.86827469    
   4.82962894       1.29409504      -9.00000000       1756.11694       2.73319697    
   4.82962894       1.29409504      -8.00000000       1756.11694       2.73319697    
   4.91481400      0.647047520      -8.00000000       1756.11694       2.73319697    
   4.91481400      0.647047520      -9.00000000       1756.11694       2.73319697    
   4.82962894       1.29409504      -8.00000000       2096.69824       2.67759275    
   4.82962894       1.29409504      -7.00000000       2096.69824       2.67759275    
   4.91481400      0.647047520      -7.00000000       2096.69824       2.67759275    
   4.91481400      0.647047520      -8.00000000       2096.69824       2.67759275    
   4.82962894       1.29409504      -7.00000000       2458.34106       2.64729834    
   4.82962894       1.29409504      -6.00000000       2458.34106       2.64729834    
   4.91481400      0.647047520      -6.00000000       2458.34106       2.64729834    
   4.91481400      0.647047520      -7.00000000       2458.34106       2.64729834    
   4.82962894       1.29409504      -6.00000000       2854.15088       2.62923408    
   4.82962894       1.29409504      -5.00000000       2854.15088       2.62923408    
   4.91481400      0.647047520      -5.00000000       2854.15088       2.62923408    
   4.91481400      0.647047520      -6.00000000       2854.15088       2.62923408    
   4.82962894       1.29409504      -5.00000000       3294.66064       2.61809540    
   4.82962894       1.29409504      -4.00000000       3294.66064       2.61809540    
   4.91481400      0.647047520      -4.00000000       3294.66064       2.61809540    
   4.91481400      0.647047520      -5.00000000       3294.66064       2.61809540    
   4.82962894       1.29409504      -4.00000000       3788.85083       2.61127853    
   4.82962894       1.29409504      -3.00000000       3788.85083       2.61127853    
   4.91481400      0.647047520      -3.00000000       3788.85083       2.61127853    
   4.91481400      0.647047520      -4.00000000       3788.85083       2.61127853    
   4.82962894       1.29409504      -3.00000000       4345.51172       2.60727072    
   4.82962894       1.29409504      -2.00000000       4345.51172       2.60727072    
   4.91481400      0.647047520      -2.00000000       4345.51172       2.60727072    
   4.91481400      0.647047520      -3.00000000       4345.51172       2.60727072    
   4.82962894       1.29409504      -2.00000000       4974.60498       2.60526133    
   4.82962894       1.29409504      -1.00000000       4974.60498       2.60526133    
   4.91481400      0.647047520      -1.00000000       4974.60498       2.60526133    
   4.91481400      0.647047520      -2.00000000       4974.60498       2.60526133    
   4.82962894       1.29409504      -1.00000000       5682.35498       2.60498881    
   4.82962894       1.29409504       0.00000000       5682.35498       2.60498881    
   4.91481400      0.647047520       0.00000000       5682.35498       2.60498881    
   4.91481400      0.647047520      -1.00000000       5682.35498       2.60498881    
   4.91481400      0.647047520      -10.0000000       1439.14600       2.86545491    
   4.91481400      0.647047520      -9.00000000       1439.14600       2.86545491    
   5.00000000       0.00000000      -9.00000000       1439.14600       2.86545491    
   5.00000000       0.00000000      -10.0000000       1439.14600       2.86545491    
   4.91481400      0.647047520      -9.00000000       1793.06384       2.73217440    
   4.91481400      0.647047520      -8.00000000       1793.06384       2.73217440    
   5.00000000       0.00000000      -8.00000000       1793.06384       2.73217440    
   5.00000000       0.00000000      -9.00000000       1793.06384       2.73217440    
   4.91481400      0.647047520      -8.00000000       2142.17944       2.67734337    
   4.91481400      0.647047520      -7.00000000       2142.17944       2.67734337    
   5.00000000       0.00000000      -7.00000000       2142.17944       2.67734337    
   5.00000000       0.00000000      -8.00000000       2142.17944       2.67734337    
   4.91481400      0.647047520      -7.00000000       2512.34741       2.64745021    
   4.91481400      0.647047520      -6.00000000       2512.34741       2.64745021    
   5.00000000       0.00000000      -6.00000000       2512.34741       2.64745021    
   5.00000000       0.00000000      -7.00000000       2512.34741       2.64745021    
   4.91481400      0.647047520      -6.00000000       2917.24634       2.62961125    
   4.91481400      0.647047520      -5.00000000       2917.24634       2.62961125    
   5.00000000       0.00000000      -5.00000000       2917.24634       2.62961125    
   5.00000000       0.00000000      -6.00000000       2917.24634       2.62961125    
   4.91481400      0.647047520      -5.00000000       3367.72632       2.61860251    
   4.91481400      0.647047520      -4.00000000       3367.72632       2.61860251    
   5.00000000       0.00000000      -4.00000000       3367.72632       2.61860251    
   5.00000000       0.00000000      -5.00000000       3367.72632       2.61860251    
   4.91481400      0.647047520      -4.00000000       3873.02148       2.61186075    
   4.91481400      0.647047520      -3.00000000       3873.02148       2.61186075    
   5.00000000       0.00000000      -3.00000000       3873.02148       2.61186075    
   5.00000000       0.00000000      -4.00000000       3873.02148       2.61186075    
   4.91481400      0.647047520      -3.00000000       4442.14404       2.60789108    
   4.91481400      0.647047520      -2.00000000       4442.14404       2.60789108    
   5.00000000       0.00000000      -2.00000000       4442.14404       2.60789108    
   5.00000000       0.00000000      -3.00000000       4442.14404       2.60789108    
   4.91481400      0.647047520      -2.00000000       5085.28174       2.60589600    
   4.91481400      0.647047520      -1.00000000       5085.28174       2.60589600    
   5.00000000       0.00000000      -1.00000000       5085.28174       2.60589600    
   5.00000000       0.00000000      -2.00000000       5085.28174       2.60589600    
   4.91481400      0.647047520      -1.00000000       5808.86816       2.60560441    
   4.91481400      0.647047520       0.00000000       5808.86816       2.60560441    
   5.00000000       0.00000000       0.00000000       5808.86816       2.60560441    
   5.00000000       0.00000000      -1.00000000       5808.86816       2.60560441    
   4.33012676       2.50000000      -10.0000000       1274.85730       2.88966775    
   4.33012676       2.50000000      -9.00000000       1274.85730       2.88966775    
   4.57987785       1.89704800      -9.00000000       1274.85730       2.88966775    
   4.57987785       1.89704800      -10.0000000       1274.85730       2.88966775    
   4.33012676       2.50000000      -9.00000000       1564.38123       2.74446654    
   4.33012676       2.50000000      -8.00000000       1564.38123       2.74446654    
   4.57987785       1.89704800      -8.00000000       1564.38123       2.74446654    
   4.57987785       1.89704800      -9.00000000       1564.38123       2.74446654    
   4.33012676       2.50000000      -8.00000000       1860.58093       2.68425536    
   4.33012676       2.50000000      -7.00000000       1860.58093       2.68425536    
   4.57987785       1.89704800      -7.00000000       1860.58093       2.68425536    
   4.57987785       1.89704800      -8.00000000       1860.58093       2.68425536    
   4.33012676       2.50000000      -7.00000000       2177.90527       2.65152383    
   4.33012676       2.50000000      -6.00000000       2177.90527       2.65152383    
   4.57987785       1.89704800      -6.00000000       2177.90527       2.65152383    
   4.57987785       1.89704800      -7.00000000       2177.90527       2.65152383    
   4.33012676       2.50000000      -6.00000000       2526.51074       2.63208079    
   4.33012676       2.50000000      -5.00000000       2526.51074       2.63208079    
   4.57987785       1.89704800      -5.00000000       2526.51074       2.63208079    
   4.57987785       1.89704800      -6.00000000       2526.51074       2.63208079    
   4.33012676       2.50000000      -5.00000000       2915.21167       2.62013197    
   4.33012676       2.50000000      -4.00000000       2915.21167       2.62013197    
   4.57987785       1.89704800      -4.00000000       2915.21167       2.62013197    
   4.57987785       1.89704800      -5.00000000       2915.21167       2.62013197    
   4.33012676       2.50000000      -4.00000000       3351.71289       2.61284900    
   4.33012676       2.50000000      -3.00000000       3351.71289       2.61284900    
   4.57987785       1.89704800      -3.00000000       3351.71289       2.61284900    
   4.57987785       1.89704800      -4.00000000       3351.71289       2.61284900    
   4.33012676       2.50000000      -3.00000000       3843.62842       2.60859203    
   4.33012676       2.50000000      -2.00000000       3843.62842       2.60859203    
   4.57987785       1.89704800      -2.00000000       3843.62842       2.60859203    
   4.57987785       1.89704800      -3.00000000       3843.62842       2.60859203    
   4.33012676       2.50000000      -2.00000000       4399.77197       2.60648799    
   4.33012676       2.50000000      -1.00000000       4399.77197       2.60648799    
   4.57987785       1.89704800      -1.00000000       4399.77197       2.60648799    
   4.57987785       1.89704800      -2.00000000       4399.77197       2.60648799    
   4.33012676       2.50000000      -1.00000000       5025.57178       2.60630989    
   4.33012676       2.50000000       0.00000000       5025.57178       2.60630989    
   4.57987785       1.89704800       0.00000000       5025.57178       2.60630989    
   4.57987785       1.89704800      -1.00000000       5025.57178       2.60630989    
   4.57987785       1.89704800      -10.0000000       1351.07898       2.87795019    
   4.57987785       1.89704800      -9.00000000       1351.07898       2.87795019    
   4.82962894       1.29409504      -9.00000000       1351.07898       2.87795019    
   4.82962894       1.29409504      -10.0000000       1351.07898       2.87795019    
   4.57987785       1.89704800      -9.00000000       1670.62292       2.73838019    
   4.57987785       1.89704800      -8.00000000       1670.62292       2.73838019    
   4.82962894       1.29409504      -8.00000000       1670.62292       2.73838019    
   4.82962894       1.29409504      -9.00000000       1670.62292       2.73838019    
   4.57987785       1.89704800      -8.00000000       1991.62268       2.68074083    
   4.57987785       1.89704800      -7.00000000       1991.62268       2.68074083    
   4.82962894       1.29409504      -7.00000000       1991.62268       2.68074083    
   4.82962894       1.29409504      -8.00000000       1991.62268       2.68074083    
   4.57987785       1.89704800      -7.00000000       2333.66870       2.64937901    
   4.57987785       1.89704800      -6.00000000       2333.66870       2.64937901    
   4.82962894       1.29409504      -6.00000000       2333.66870       2.64937901    
   4.82962894       1.29409504      -7.00000000       2333.66870       2.64937901    
   4.57987785       1.89704800      -6.00000000       2708.58447       2.63071012    
   4.57987785       1.89704800      -5.00000000       2708.58447       2.63071012    
   4.82962894       1.29409504      -5.00000000       2708.58447       2.63071012    
   4.82962894       1.29409504      -6.00000000       2708.58447       2.63071012    
   4.57987785       1.89704800      -5.00000000       3126.13281       2.61921716    
   4.57987785       1.89704800      -4.00000000       3126.13281       2.61921716    
   4.82962894       1.29409504      -4.00000000       3126.13281       2.61921716    
   4.82962894       1.29409504      -5.00000000       3126.13281       2.61921716    
   4.57987785       1.89704800      -4.00000000       3594.72900       2.61219692    
   4.57987785       1.89704800      -3.00000000       3594.72900       2.61219692    
   4.82962894       1.29409504      -3.00000000       3594.72900       2.61219692    
   4.82962894       1.29409504      -4.00000000       3594.72900       2.61219692    
   4.57987785       1.89704800      -3.00000000       4122.66943       2.60807800    
   4.57987785       1.89704800      -2.00000000       4122.66943       2.60807800    
   4.82962894       1.29409504      -2.00000000       4122.66943       2.60807800    
   4.82962894       1.29409504      -3.00000000       4122.66943       2.60807800    
   4.57987785       1.89704800      -2.00000000       4719.38574       2.60602665    
   4.57987785       1.89704800      -1.00000000       4719.38574       2.60602665    
   4.82962894       1.29409504      -1.00000000       4719.38574       2.60602665    
   4.82962894       1.29409504      -2.00000000       4719.38574       2.60602665    
   4.57987785       1.89704800      -1.00000000       5390.93311       2.60578537    
   4.57987785       1.89704800       0.00000000       5390.93311       2.60578537    
   4.82962894       1.29409504       0.00000000       5390.93311       2.60578537    
   4.82962894       1.29409504      -1.00000000       5390.93311       2.60578537    
   3.53553391       3.53553391      -10.0000000       1047.67444       2.95150757    
   3.53553391       3.53553391      -9.00000000       1047.67444       2.95150757    
   3.93283010       3.01776695      -9.00000000       1047.67444       2.95150757    
   3.93283010       3.01776695      -10.0000000       1047.67444       2.95150757    
   3.53553391       3.53553391      -9.00000000       1243.51941       2.78746629    
   3.53553391       3.53553391      -8.00000000       1243.51941       2.78746629    
   3.93283010       3.01776695      -8.00000000       1243.51941       2.78746629    
   3.93283010       3.01776695      -9.00000000       1243.51941       2.78746629    
   3.53553391       3.53553391      -8.00000000       1463.55103       2.71733761    
   3.53553391       3.53553391      -7.00000000       1463.55103       2.71733761    
   3.93283010       3.01776695      -7.00000000       1463.55103       2.71733761    
   3.93283010       3.01776695      -8.00000000       1463.55103       2.71733761    
   3.53553391       3.53553391      -7.00000000       1705.24268       2.67908430    
   3.53553391       3.53553391      -6.00000000       1705.24268       2.67908430    
   3.93283010       3.01776695      -6.00000000       1705.24268       2.67908430    
   3.93283010       3.01776695      -7.00000000       1705.24268       2.67908430    
   3.53553391       3.53553391      -6.00000000       1973.55566       2.65642357    
   3.53553391       3.53553391      -5.00000000       1973.55566       2.65642357    
   3.93283010       3.01776695      -5.00000000       1973.55566       2.65642357    
   3.93283010       3.01776695      -6.00000000       1973.55566       2.65642357    
   3.53553391       3.53553391      -5.00000000       2274.30396       2.64255142    
   3.53553391       3.53553391      -4.00000000       2274.30396       2.64255142    
   3.93283010       3.01776695      -4.00000000       2274.30396       2.64255142    
   3.93283010       3.01776695      -5.00000000       2274.30396       2.64255142    
   3.53553391       3.53553391      -4.00000000       2613.00366       2.63414621    
   3.53553391       3.53553391      -3.00000000       2613.00366       2.63414621    
   3.93283010       3.01776695      -3.00000000       2613.00366       2.63414621    
   3.93283010       3.01776695      -4.00000000       2613.00366       2.63414621    
   3.53553391       3.53553391      -3.00000000       2995.28076       2.62928319    
   3.53553391       3.53553391      -2.00000000       2995.28076       2.62928319    
   3.93283010       3.01776695      -2.00000000       2995.28076       2.62928319    
   3.93283010       3.01776695      -3.00000000       2995.28076       2.62928319    
   3.53553391       3.53553391      -2.00000000       3427.96875       2.62693930    
   3.53553391       3.53553391      -1.00000000       3427.96875       2.62693930    
   3.93283010       3.01776695      -1.00000000       3427.96875       2.62693930    
   3.93283010       3.01776695      -2.00000000       3427.96875       2.62693930    
   3.53553391       3.53553391      -1.00000000       3915.31006       2.62696600    
   3.53553391       3.53553391       0.00000000       3915.31006       2.62696600    
   3.93283010       3.01776695       0.00000000       3915.31006       2.62696600    
   3.93283010       3.01776695      -1.00000000       3915.31006       2.62696600    
   3.93283010       3.01776695      -10.0000000       1161.42786       2.91805673    
   3.93283010       3.01776695      -9.00000000       1161.42786       2.91805673    
   4.33012676       2.50000000      -9.00000000       1161.42786       2.91805673    
   4.33012676       2.50000000      -10.0000000       1161.42786       2.91805673    
   3.93283010       3.01776695      -9.00000000       1404.62292       2.76349974    
   3.93283010       3.01776695      -8.00000000       1404.62292       2.76349974    
   4.33012676       2.50000000      -8.00000000       1404.62292       2.76349974    
   4.33012676       2.50000000      -9.00000000       1404.62292       2.76349974    
   3.93283010       3.01776695      -8.00000000       1663.43237       2.69855690    
   3.93283010       3.01776695      -7.00000000       1663.43237       2.69855690    
   4.33012676       2.50000000      -7.00000000       1663.43237       2.69855690    
   4.33012676       2.50000000      -8.00000000       1663.43237       2.69855690    
   3.93283010       3.01776695      -7.00000000       1943.52637       2.66324949    
   3.93283010       3.01776695      -6.00000000       1943.52637       2.66324949    
   4.33012676       2.50000000      -6.00000000       1943.52637       2.66324949    
   4.33012676       2.50000000      -7.00000000       1943.52637       2.66324949    
   3.93283010       3.01776695      -6.00000000       2252.54980       2.64231348    
   3.93283010       3.01776695      -5.00000000       2252.54980       2.64231348    
   4.33012676       2.50000000      -5.00000000       2252.54980       2.64231348    
   4.33012676       2.50000000      -6.00000000       2252.54980       2.64231348    
   3.93283010       3.01776695      -5.00000000       2597.81909       2.62947869    
   3.93283010       3.01776695      -4.00000000       2597.81909       2.62947869    
   4.33012676       2.50000000      -4.00000000       2597.81909       2.62947869    
   4.33012676       2.50000000      -5.00000000       2597.81909       2.62947869    
   3.93283010       3.01776695      -4.00000000       2985.96924       2.62168121    
   3.93283010       3.01776695      -3.00000000       2985.96924       2.62168121    
   4.33012676       2.50000000      -3.00000000       2985.96924       2.62168121    
   4.33012676       2.50000000      -4.00000000       2985.96924       2.62168121    
   3.93283010       3.01776695      -3.00000000       3423.68457       2.61714315    
   3.93283010       3.01776695      -2.00000000       3423.68457       2.61714315    
   4.33012676       2.50000000      -2.00000000       3423.68457       2.61714315    
   4.33012676       2.50000000      -3.00000000       3423.68457       2.61714315    
   3.93283010       3.01776695      -2.00000000       3918.74414       2.61492825    
   3.93283010       3.01776695      -1.00000000       3918.74414       2.61492825    
   4.33012676       2.50000000      -1.00000000       3918.74414       2.61492825    
   4.33012676       2.50000000      -2.00000000       3918.74414       2.61492825    
   3.93283010       3.01776695      -1.00000000       4476.32275       2.61481833    
   3.93283010       3.01776695       0.00000000       4476.32275       2.61481833    
   4.33012676       2.50000000       0.00000000       4476.32275       2.61481833    
   4.33012676       2.50000000      -1.00000000       4476.32275       2.61481833    
   2.50000000       4.33012676      -10.0000000       776.678406       3.11638856    
   2.50000000       4.33012676      -9.00000000       776.678406       3.11638856    
   3.01776695       3.93283010      -9.00000000       776.678406       3.11638856    
   3.01776695       3.93283010      -10.0000000       776.678406       3.11638856    
   2.50000000       4.33012676      -9.00000000       847.869080       2.93600249    
   2.50000000       4.33012676      -8.00000000       847.869080       2.93600249    
   3.01776695       3.93283010      -8.00000000       847.869080       2.93600249    
   3.01776695       3.93283010      -9.00000000       847.869080       2.93600249    
   2.50000000       4.33012676      -8.00000000       967.084167       2.84989405    
   2.50000000       4.33012676      -7.00000000       967.084167       2.84989405    
   3.01776695       3.93283010      -7.00000000       967.084167       2.84989405    
   3.01776695       3.93283010      -8.00000000       967.084167       2.84989405    
   2.50000000       4.33012676      -7.00000000       1109.93079       2.80115938    
   2.50000000       4.33012676      -6.00000000       1109.93079       2.80115938    
   3.01776695       3.93283010      -6.00000000       1109.93079       2.80115938    
   3.01776695       3.93283010      -7.00000000       1109.93079       2.80115938    
   2.50000000       4.33012676      -6.00000000       1274.27063       2.77188420    
   2.50000000       4.33012676      -5.00000000       1274.27063       2.77188420    
   3.01776695       3.93283010      -5.00000000       1274.27063       2.77188420    
   3.01776695       3.93283010      -6.00000000       1274.27063       2.77188420    
   2.50000000       4.33012676      -5.00000000       1461.81482       2.75387025    
   2.50000000       4.33012676      -4.00000000       1461.81482       2.75387025    
   3.01776695       3.93283010      -4.00000000       1461.81482       2.75387025    
   3.01776695       3.93283010      -5.00000000       1461.81482       2.75387025    
   2.50000000       4.33012676      -4.00000000       1675.17554       2.74297857    
   2.50000000       4.33012676      -3.00000000       1675.17554       2.74297857    
   3.01776695       3.93283010      -3.00000000       1675.17554       2.74297857    
   3.01776695       3.93283010      -4.00000000       1675.17554       2.74297857    
   2.50000000       4.33012676      -3.00000000       1917.37170       2.73676181    
   2.50000000       4.33012676      -2.00000000       1917.37170       2.73676181    
   3.01776695       3.93283010      -2.00000000       1917.37170       2.73676181    
   3.01776695       3.93283010      -3.00000000       1917.37170       2.73676181    
   2.50000000       4.33012676      -2.00000000       2192.72485       2.73388171    
   2.50000000       4.33012676      -1.00000000       2192.72485       2.73388171    
   3.01776695       3.93283010      -1.00000000       2192.72485       2.73388171    
   3.01776695       3.93283010      -2.00000000       2192.72485       2.73388171    
   2.50000000       4.33012676      -1.00000000       2504.22095       2.73437214    
   2.50000000       4.33012676       0.00000000       2504.22095       2.73437214    
   3.01776695       3.93283010       0.00000000       2504.22095       2.73437214    
   3.01776695       3.93283010      -1.00000000       2504.22095       2.73437214    
   3.01776695       3.93283010      -10.0000000       903.461609       3.02531219    
   3.01776695       3.93283010      -9.00000000       903.461609       3.02531219    
   3.53553391       3.53553391      -9.00000000       903.461609       3.02531219    
   3.53553391       3.53553391      -10.0000000       903.461609       3.02531219    
   3.01776695       3.93283010      -9.00000000       1034.49084       2.84960914    
   3.01776695       3.93283010      -8.00000000       1034.49084       2.84960914    
   3.53553391       3.53553391      -8.00000000       1034.49084       2.84960914    
   3.53553391       3.53553391      -9.00000000       1034.49084       2.84960914    
   3.01776695       3.93283010      -8.00000000       1202.68286       2.77095628    
   3.01776695       3.93283010      -7.00000000       1202.68286       2.77095628    
   3.53553391       3.53553391      -7.00000000       1202.68286       2.77095628    
   3.53553391       3.53553391      -8.00000000       1202.68286       2.77095628    
   3.01776695       3.93283010      -7.00000000       1393.35938       2.72753954    
   3.01776695       3.93283010      -6.00000000       1393.35938       2.72753954    
   3.53553391       3.53553391      -6.00000000       1393.35938       2.72753954    
   3.53553391       3.53553391      -7.00000000       1393.35938       2.72753954    
   3.01776695       3.93283010      -6.00000000       1607.84692       2.70172405    
   3.01776695       3.93283010      -5.00000000       1607.84692       2.70172405    
   3.53553391       3.53553391      -5.00000000       1607.84692       2.70172405    
   3.53553391       3.53553391      -6.00000000       1607.84692       2.70172405    
   3.01776695       3.93283010      -5.00000000       1849.82361       2.68591952    
   3.01776695       3.93283010      -4.00000000       1849.82361       2.68591952    
   3.53553391       3.53553391      -4.00000000       1849.82361       2.68591952    
   3.53553391       3.53553391      -5.00000000       1849.82361       2.68591952    
   3.01776695       3.93283010      -4.00000000       2123.31152       2.67636943    
   3.01776695       3.93283010      -3.00000000       2123.31152       2.67636943    
   3.53553391       3.53553391      -3.00000000       2123.31152       2.67636943    
   3.53553391       3.53553391      -4.00000000       2123.31152       2.67636943    
   3.01776695       3.93283010      -3.00000000       2432.65259       2.67087436    
   3.01776695       3.93283010      -2.00000000       2432.65259       2.67087436    
   3.53553391       3.53553391      -2.00000000       2432.65259       2.67087436    
   3.53553391       3.53553391      -3.00000000       2432.65259       2.67087436    
   3.01776695       3.93283010      -2.00000000       2783.31348       2.66827869    
   3.01776695       3.93283010      -1.00000000       2783.31348       2.66827869    
   3.53553391       3.53553391      -1.00000000       2783.31348       2.66827869    
   3.53553391       3.53553391      -2.00000000       2783.31348       2.66827869    
   3.01776695       3.93283010      -1.00000000       3179.25366       2.66843939    
   3.01776695       3.93283010       0.00000000       3179.25366       2.66843939    
   3.53553391       3.53553391       0.00000000       3179.25366       2.66843939    
   3.53553391       3.53553391      -1.00000000       3179.25366       2.66843939    
   1.29409504       4.82962894      -10.0000000       559.743286      -2.75337744    
   1.29409504       4.82962894      -9.00000000       559.743286      -2.75337744    
   1.89704800       4.57987785      -9.00000000       559.743286      -2.75337744    
   1.89704800       4.57987785      -10.0000000       559.743286      -2.75337744    
   1.29409504       4.82962894      -9.00000000       515.755981      -2.82387900    
   1.29409504       4.82962894      -8.00000000       515.755981      -2.82387900    
   1.89704800       4.57987785      -8.00000000       515.755981      -2.82387900    
   1.89704800       4.57987785      -9.00000000       515.755981      -2.82387900    
   1.29409504       4.82962894      -8.00000000       534.575562      -2.87512183    
   1.29409504       4.82962894      -7.00000000       534.575562      -2.87512183    
   1.89704800       4.57987785      -7.00000000       534.575562      -2.87512183    
   1.89704800       4.57987785      -8.00000000       534.575562      -2.87512183    
   1.29409504       4.82962894      -7.00000000       578.993103      -2.91079497    
   1.29409504       4.82962894      -6.00000000       578.993103      -2.91079497    
   1.89704800       4.57987785      -6.00000000       578.993103      -2.91079497    
   1.89704800       4.57987785      -7.00000000       578.993103      -2.91079497    
   1.29409504       4.82962894      -6.00000000       641.373657      -2.93496037    
   1.29409504       4.82962894      -5.00000000       641.373657      -2.93496037    
   1.89704800       4.57987785      -5.00000000       641.373657      -2.93496037    
   1.89704800       4.57987785      -6.00000000       641.373657      -2.93496037    
   1.29409504       4.82962894      -5.00000000       719.648743      -2.95102167    
   1.29409504       4.82962894      -4.00000000       719.648743      -2.95102167    
   1.89704800       4.57987785      -4.00000000       719.648743      -2.95102167    
   1.89704800       4.57987785      -5.00000000       719.648743      -2.95102167    
   1.29409504       4.82962894      -4.00000000       813.721863      -2.96108937    
   1.29409504       4.82962894      -3.00000000       813.721863      -2.96108937    
   1.89704800       4.57987785      -3.00000000       813.721863      -2.96108937    