 VARIABLES="X" "Y" "Z" "abs(p) (Pa)" "angle(p) (rad)"
ZONE N=   1080,E =     600, F=FEPOINT, ET=QUADRILATERAL
   4.82962894       1.29409504      -10.0000000       111.098831       1.57079673    
   4.82962894       1.29409504      -9.00000000       111.098831       1.57079673    
   4.91481400      0.647047520      -9.00000000       111.098831       1.57079673    
   4.91481400      0.647047520      -10.0000000       111.098831       1.57079673    
   4.82962894       1.29409504      -9.00000000       113.616112       1.57079685    
   4.82962894       1.29409504      -8.00000000       113.616112       1.57079685    
   4.91481400      0.647047520      -8.00000000       113.616112       1.57079685    
   4.91481400      0.647047520      -9.00000000       113.616112       1.57079685    
   4.82962894       1.29409504      -8.00000000       113.630081       1.57079697    
   4.82962894       1.29409504      -7.00000000       113.630081       1.57079697    
   4.91481400      0.647047520      -7.00000000       113.630081       1.57079697    
   4.91481400      0.647047520      -8.00000000       113.630081       1.57079697    
   4.82962894       1.29409504      -7.00000000       113.648590       1.57079720    
   4.82962894       1.29409504      -6.00000000       113.648590       1.57079720    
   4.91481400      0.647047520      -6.00000000       113.648590       1.57079720    
   4.91481400      0.647047520      -7.00000000       113.648590       1.57079720    
   4.82962894       1.29409504      -6.00000000       113.605125       1.57079685    
   4.82962894       1.29409504      -5.00000000       113.605125       1.57079685    
   4.91481400      0.647047520      -5.00000000       113.605125       1.57079685    
   4.91481400      0.647047520      -6.00000000       113.605125       1.57079685    
   4.82962894       1.29409504      -5.00000000       113.604996       1.57079697    
   4.82962894       1.29409504      -4.00000000       113.604996       1.57079697    
   4.91481400      0.647047520      -4.00000000       113.604996       1.57079697    
   4.91481400      0.647047520      -5.00000000       113.604996       1.57079697    
   4.82962894       1.29409504      -4.00000000       113.692551       1.57079697    
   4.82962894       1.29409504      -3.00000000       113.692551       1.57079697    
   4.91481400      0.647047520      -3.00000000       113.692551       1.57079697    
   4.91481400      0.647047520      -4.00000000       113.692551       1.57079697    
   4.82962894       1.29409504      -3.00000000       113.661858       1.57079744    
   4.82962894       1.29409504      -2.00000000       113.661858       1.57079744    
   4.91481400      0.647047520      -2.00000000       113.661858       1.57079744    
   4.91481400      0.647047520      -3.00000000       113.661858       1.57079744    
   4.82962894       1.29409504      -2.00000000       113.694336       1.57079840    
   4.82962894       1.29409504      -1.00000000       113.694336       1.57079840    
   4.91481400      0.647047520      -1.00000000       113.694336       1.57079840    
   4.91481400      0.647047520      -2.00000000       113.694336       1.57079840    
   4.82962894       1.29409504      -1.00000000       113.275536       1.57079768    
   4.82962894       1.29409504       0.00000000       113.275536       1.57079768    
   4.91481400      0.647047520       0.00000000       113.275536       1.57079768    
   4.91481400      0.647047520      -1.00000000       113.275536       1.57079768    
   4.91481400      0.647047520      -10.0000000       111.100876      -1.57079589    
   4.91481400      0.647047520      -9.00000000       111.100876      -1.57079589    
   5.00000000       0.00000000      -9.00000000       111.100876      -1.57079589    
   5.00000000       0.00000000      -10.0000000       111.100876      -1.57079589    
   4.91481400      0.647047520      -9.00000000       113.618958      -1.57079589    
   4.91481400      0.647047520      -8.00000000       113.618958      -1.57079589    
   5.00000000       0.00000000      -8.00000000       113.618958      -1.57079589    
   5.00000000       0.00000000      -9.00000000       113.618958      -1.57079589    
   4.91481400      0.647047520      -8.00000000       113.632736      -1.57079589    
   4.91481400      0.647047520      -7.00000000       113.632736      -1.57079589    
   5.00000000       0.00000000      -7.00000000       113.632736      -1.57079589    
   5.00000000       0.00000000      -8.00000000       113.632736      -1.57079589    
   4.91481400      0.647047520      -7.00000000       113.651062      -1.57079554    
   4.91481400      0.647047520      -6.00000000       113.651062      -1.57079554    
   5.00000000       0.00000000      -6.00000000       113.651062      -1.57079554    
   5.00000000       0.00000000      -7.00000000       113.651062      -1.57079554    
   4.91481400      0.647047520      -6.00000000       113.607430      -1.57079589    
   4.91481400      0.647047520      -5.00000000       113.607430      -1.57079589    
   5.00000000       0.00000000      -5.00000000       113.607430      -1.57079589    
   5.00000000       0.00000000      -6.00000000       113.607430      -1.57079589    
   4.91481400      0.647047520      -5.00000000       113.607239      -1.57079566    
   4.91481400      0.647047520      -4.00000000       113.607239      -1.57079566    
   5.00000000       0.00000000      -4.00000000       113.607239      -1.57079566    
   5.00000000       0.00000000      -5.00000000       113.607239      -1.57079566    
   4.91481400      0.647047520      -4.00000000       113.694756      -1.57079554    
   4.91481400      0.647047520      -3.00000000       113.694756      -1.57079554    
   5.00000000       0.00000000      -3.00000000       113.694756      -1.57079554    
   5.00000000       0.00000000      -4.00000000       113.694756      -1.57079554    
   4.91481400      0.647047520      -3.00000000       113.664009      -1.57079577    
   4.91481400      0.647047520      -2.00000000       113.664009      -1.57079577    
   5.00000000       0.00000000      -2.00000000       113.664009      -1.57079577    
   5.00000000       0.00000000      -3.00000000       113.664009      -1.57079577    
   4.91481400      0.647047520      -2.00000000       113.696259      -1.57079554    
   4.91481400      0.647047520      -1.00000000       113.696259      -1.57079554    
   5.00000000       0.00000000      -1.00000000       113.696259      -1.57079554    
   5.00000000       0.00000000      -2.00000000       113.696259      -1.57079554    
   4.91481400      0.647047520      -1.00000000       113.277374      -1.57079446    
   4.91481400      0.647047520       0.00000000       113.277374      -1.57079446    
   5.00000000       0.00000000       0.00000000       113.277374      -1.57079446    
   5.00000000       0.00000000      -1.00000000       113.277374      -1.57079446    
   4.33012676       2.50000000      -10.0000000       111.099998       1.57079661    
   4.33012676       2.50000000      -9.00000000       111.099998       1.57079661    
   4.57987785       1.89704800      -9.00000000       111.099998       1.57079661    
   4.57987785       1.89704800      -10.0000000       111.099998       1.57079661    
   4.33012676       2.50000000      -9.00000000       113.617752       1.57079673    
   4.33012676       2.50000000      -8.00000000       113.617752       1.57079673    
   4.57987785       1.89704800      -8.00000000       113.617752       1.57079673    
   4.57987785       1.89704800      -9.00000000       113.617752       1.57079673    
   4.33012676       2.50000000      -8.00000000       113.631668       1.57079673    
   4.33012676       2.50000000      -7.00000000       113.631668       1.57079673    
   4.57987785       1.89704800      -7.00000000       113.631668       1.57079673    
   4.57987785       1.89704800      -8.00000000       113.631668       1.57079673    
   4.33012676       2.50000000      -7.00000000       113.650185       1.57079661    
   4.33012676       2.50000000      -6.00000000       113.650185       1.57079661    
   4.57987785       1.89704800      -6.00000000       113.650185       1.57079661    
   4.57987785       1.89704800      -7.00000000       113.650185       1.57079661    
   4.33012676       2.50000000      -6.00000000       113.606857       1.57079661    
   4.33012676       2.50000000      -5.00000000       113.606857       1.57079661    
   4.57987785       1.89704800      -5.00000000       113.606857       1.57079661    
   4.57987785       1.89704800      -6.00000000       113.606857       1.57079661    
   4.33012676       2.50000000      -5.00000000       113.606476       1.57079697    
   4.33012676       2.50000000      -4.00000000       113.606476       1.57079697    
   4.57987785       1.89704800      -4.00000000       113.606476       1.57079697    
   4.57987785       1.89704800      -5.00000000       113.606476       1.57079697    
   4.33012676       2.50000000      -4.00000000       113.694008       1.57079673    
   4.33012676       2.50000000      -3.00000000       113.694008       1.57079673    
   4.57987785       1.89704800      -3.00000000       113.694008       1.57079673    
   4.57987785       1.89704800      -4.00000000       113.694008       1.57079673    
   4.33012676       2.50000000      -3.00000000       113.663437       1.57079697    
   4.33012676       2.50000000      -2.00000000       113.663437       1.57079697    
   4.57987785       1.89704800      -2.00000000       113.663437       1.57079697    
   4.57987785       1.89704800      -3.00000000       113.663437       1.57079697    
   4.33012676       2.50000000      -2.00000000       113.695648       1.57079744    
   4.33012676       2.50000000      -1.00000000       113.695648       1.57079744    
   4.57987785       1.89704800      -1.00000000       113.695648       1.57079744    
   4.57987785       1.89704800      -2.00000000       113.695648       1.57079744    
   4.33012676       2.50000000      -1.00000000       113.277046       1.57079649    
   4.33012676       2.50000000       0.00000000       113.277046       1.57079649    
   4.57987785       1.89704800       0.00000000       113.277046       1.57079649    
   4.57987785       1.89704800      -1.00000000       113.277046       1.57079649    
   4.57987785       1.89704800      -10.0000000       111.100525      -1.57079566    
   4.57987785       1.89704800      -9.00000000       111.100525      -1.57079566    
   4.82962894       1.29409504      -9.00000000       111.100525      -1.57079566    
   4.82962894       1.29409504      -10.0000000       111.100525      -1.57079566    
   4.57987785       1.89704800      -9.00000000       113.618713      -1.57079554    
   4.57987785       1.89704800      -8.00000000       113.618713      -1.57079554    
   4.82962894       1.29409504      -8.00000000       113.618713      -1.57079554    
   4.82962894       1.29409504      -9.00000000       113.618713      -1.57079554    
   4.57987785       1.89704800      -8.00000000       113.632736      -1.57079577    
   4.57987785       1.89704800      -7.00000000       113.632736      -1.57079577    
   4.82962894       1.29409504      -7.00000000       113.632736      -1.57079577    
   4.82962894       1.29409504      -8.00000000       113.632736      -1.57079577    
   4.57987785       1.89704800      -7.00000000       113.650894      -1.57079542    
   4.57987785       1.89704800      -6.00000000       113.650894      -1.57079542    
   4.82962894       1.29409504      -6.00000000       113.650894      -1.57079542    
   4.82962894       1.29409504      -7.00000000       113.650894      -1.57079542    
   4.57987785       1.89704800      -6.00000000       113.607513      -1.57079530    
   4.57987785       1.89704800      -5.00000000       113.607513      -1.57079530    
   4.82962894       1.29409504      -5.00000000       113.607513      -1.57079530    
   4.82962894       1.29409504      -6.00000000       113.607513      -1.57079530    
   4.57987785       1.89704800      -5.00000000       113.607254      -1.57079530    
   4.57987785       1.89704800      -4.00000000       113.607254      -1.57079530    
   4.82962894       1.29409504      -4.00000000       113.607254      -1.57079530    
   4.82962894       1.29409504      -5.00000000       113.607254      -1.57079530    
   4.57987785       1.89704800      -4.00000000       113.694466      -1.57079506    
   4.57987785       1.89704800      -3.00000000       113.694466      -1.57079506    
   4.82962894       1.29409504      -3.00000000       113.694466      -1.57079506    
   4.82962894       1.29409504      -4.00000000       113.694466      -1.57079506    
   4.57987785       1.89704800      -3.00000000       113.663795      -1.57079446    
   4.57987785       1.89704800      -2.00000000       113.663795      -1.57079446    
   4.82962894       1.29409504      -2.00000000       113.663795      -1.57079446    
   4.82962894       1.29409504      -3.00000000       113.663795      -1.57079446    
   4.57987785       1.89704800      -2.00000000       113.696472      -1.57079351    
   4.57987785       1.89704800      -1.00000000       113.696472      -1.57079351    
   4.82962894       1.29409504      -1.00000000       113.696472      -1.57079351    
   4.82962894       1.29409504      -2.00000000       113.696472      -1.57079351    
   4.57987785       1.89704800      -1.00000000       113.277962      -1.57079387    
   4.57987785       1.89704800       0.00000000       113.277962      -1.57079387    
   4.82962894       1.29409504       0.00000000       113.277962      -1.57079387    
   4.82962894       1.29409504      -1.00000000       113.277962      -1.57079387    
   3.53553391       3.53553391      -10.0000000       111.100616       1.57079649    
   3.53553391       3.53553391      -9.00000000       111.100616       1.57079649    
   3.93283010       3.01776695      -9.00000000       111.100616       1.57079649    
   3.93283010       3.01776695      -10.0000000       111.100616       1.57079649    
   3.53553391       3.53553391      -9.00000000       113.618340       1.57079637    
   3.53553391       3.53553391      -8.00000000       113.618340       1.57079637    
   3.93283010       3.01776695      -8.00000000       113.618340       1.57079637    
   3.93283010       3.01776695      -9.00000000       113.618340       1.57079637    
   3.53553391       3.53553391      -8.00000000       113.632095       1.57079613    
   3.53553391       3.53553391      -7.00000000       113.632095       1.57079613    
   3.93283010       3.01776695      -7.00000000       113.632095       1.57079613    
   3.93283010       3.01776695      -8.00000000       113.632095       1.57079613    
   3.53553391       3.53553391      -7.00000000       113.650658       1.57079637    
   3.53553391       3.53553391      -6.00000000       113.650658       1.57079637    
   3.93283010       3.01776695      -6.00000000       113.650658       1.57079637    
   3.93283010       3.01776695      -7.00000000       113.650658       1.57079637    
   3.53553391       3.53553391      -6.00000000       113.607162       1.57079625    
   3.53553391       3.53553391      -5.00000000       113.607162       1.57079625    
   3.93283010       3.01776695      -5.00000000       113.607162       1.57079625    
   3.93283010       3.01776695      -6.00000000       113.607162       1.57079625    
   3.53553391       3.53553391      -5.00000000       113.606697       1.57079601    
   3.53553391       3.53553391      -4.00000000       113.606697       1.57079601    
   3.93283010       3.01776695      -4.00000000       113.606697       1.57079601    
   3.93283010       3.01776695      -5.00000000       113.606697       1.57079601    
   3.53553391       3.53553391      -4.00000000       113.694061       1.57079613    
   3.53553391       3.53553391      -3.00000000       113.694061       1.57079613    
   3.93283010       3.01776695      -3.00000000       113.694061       1.57079613    
   3.93283010       3.01776695      -4.00000000       113.694061       1.57079613    
   3.53553391       3.53553391      -3.00000000       113.663712       1.57079577    
   3.53553391       3.53553391      -2.00000000       113.663712       1.57079577    
   3.93283010       3.01776695      -2.00000000       113.663712       1.57079577    
   3.93283010       3.01776695      -3.00000000       113.663712       1.57079577    
   3.53553391       3.53553391      -2.00000000       113.696236       1.57079542    
   3.53553391       3.53553391      -1.00000000       113.696236       1.57079542    
   3.93283010       3.01776695      -1.00000000       113.696236       1.57079542    
   3.93283010       3.01776695      -2.00000000       113.696236       1.57079542    
   3.53553391       3.53553391      -1.00000000       113.277565       1.57079601    
   3.53553391       3.53553391       0.00000000       113.277565       1.57079601    
   3.93283010       3.01776695       0.00000000       113.277565       1.57079601    
   3.93283010       3.01776695      -1.00000000       113.277565       1.57079601    
   3.93283010       3.01776695      -10.0000000       111.099709      -1.57079566    
   3.93283010       3.01776695      -9.00000000       111.099709      -1.57079566    
   4.33012676       2.50000000      -9.00000000       111.099709      -1.57079566    
   4.33012676       2.50000000      -10.0000000       111.099709      -1.57079566    
   3.93283010       3.01776695      -9.00000000       113.617516      -1.57079554    
   3.93283010       3.01776695      -8.00000000       113.617516      -1.57079554    
   4.33012676       2.50000000      -8.00000000       113.617516      -1.57079554    
   4.33012676       2.50000000      -9.00000000       113.617516      -1.57079554    
   3.93283010       3.01776695      -8.00000000       113.631660      -1.57079554    
   3.93283010       3.01776695      -7.00000000       113.631660      -1.57079554    
   4.33012676       2.50000000      -7.00000000       113.631660      -1.57079554    
   4.33012676       2.50000000      -8.00000000       113.631660      -1.57079554    
   3.93283010       3.01776695      -7.00000000       113.649994      -1.57079530    
   3.93283010       3.01776695      -6.00000000       113.649994      -1.57079530    
   4.33012676       2.50000000      -6.00000000       113.649994      -1.57079530    
   4.33012676       2.50000000      -7.00000000       113.649994      -1.57079530    
   3.93283010       3.01776695      -6.00000000       113.606392      -1.57079554    
   3.93283010       3.01776695      -5.00000000       113.606392      -1.57079554    
   4.33012676       2.50000000      -5.00000000       113.606392      -1.57079554    
   4.33012676       2.50000000      -6.00000000       113.606392      -1.57079554    
   3.93283010       3.01776695      -5.00000000       113.606537      -1.57079530    
   3.93283010       3.01776695      -4.00000000       113.606537      -1.57079530    
   4.33012676       2.50000000      -4.00000000       113.606537      -1.57079530    
   4.33012676       2.50000000      -5.00000000       113.606537      -1.57079530    
   3.93283010       3.01776695      -4.00000000       113.693657      -1.57079542    
   3.93283010       3.01776695      -3.00000000       113.693657      -1.57079542    
   4.33012676       2.50000000      -3.00000000       113.693657      -1.57079542    
   4.33012676       2.50000000      -4.00000000       113.693657      -1.57079542    
   3.93283010       3.01776695      -3.00000000       113.663033      -1.57079518    
   3.93283010       3.01776695      -2.00000000       113.663033      -1.57079518    
   4.33012676       2.50000000      -2.00000000       113.663033      -1.57079518    
   4.33012676       2.50000000      -3.00000000       113.663033      -1.57079518    
   3.93283010       3.01776695      -2.00000000       113.695030      -1.57079351    
   3.93283010       3.01776695      -1.00000000       113.695030      -1.57079351    
   4.33012676       2.50000000      -1.00000000       113.695030      -1.57079351    
   4.33012676       2.50000000      -2.00000000       113.695030      -1.57079351    
   3.93283010       3.01776695      -1.00000000       113.276520      -1.57079327    
   3.93283010       3.01776695       0.00000000       113.276520      -1.57079327    
   4.33012676       2.50000000       0.00000000       113.276520      -1.57079327    
   4.33012676       2.50000000      -1.00000000       113.276520      -1.57079327    
   2.50000000       4.33012676      -10.0000000       111.099861       1.57079649    
   2.50000000       4.33012676      -9.00000000       111.099861       1.57079649    
   3.01776695       3.93283010      -9.00000000       111.099861       1.57079649    
   3.01776695       3.93283010      -10.0000000       111.099861       1.57079649    
   2.50000000       4.33012676      -9.00000000       113.617783       1.57079637    
   2.50000000       4.33012676      -8.00000000       113.617783       1.57079637    
   3.01776695       3.93283010      -8.00000000       113.617783       1.57079637    
   3.01776695       3.93283010      -9.00000000       113.617783       1.57079637    
   2.50000000       4.33012676      -8.00000000       113.631531       1.57079649    
   2.50000000       4.33012676      -7.00000000       113.631531       1.57079649    
   3.01776695       3.93283010      -7.00000000       113.631531       1.57079649    
   3.01776695       3.93283010      -8.00000000       113.631531       1.57079649    
   2.50000000       4.33012676      -7.00000000       113.649857       1.57079625    
   2.50000000       4.33012676      -6.00000000       113.649857       1.57079625    
   3.01776695       3.93283010      -6.00000000       113.649857       1.57079625    
   3.01776695       3.93283010      -7.00000000       113.649857       1.57079625    
   2.50000000       4.33012676      -6.00000000       113.606339       1.57079637    
   2.50000000       4.33012676      -5.00000000       113.606339       1.57079637    
   3.01776695       3.93283010      -5.00000000       113.606339       1.57079637    
   3.01776695       3.93283010      -6.00000000       113.606339       1.57079637    
   2.50000000       4.33012676      -5.00000000       113.606071       1.57079613    
   2.50000000       4.33012676      -4.00000000       113.606071       1.57079613    
   3.01776695       3.93283010      -4.00000000       113.606071       1.57079613    
   3.01776695       3.93283010      -5.00000000       113.606071       1.57079613    
   2.50000000       4.33012676      -4.00000000       113.693573       1.57079685    
   2.50000000       4.33012676      -3.00000000       113.693573       1.57079685    
   3.01776695       3.93283010      -3.00000000       113.693573       1.57079685    
   3.01776695       3.93283010      -4.00000000       113.693573       1.57079685    
   2.50000000       4.33012676      -3.00000000       113.662598       1.57079649    
   2.50000000       4.33012676      -2.00000000       113.662598       1.57079649    
   3.01776695       3.93283010      -2.00000000       113.662598       1.57079649    
   3.01776695       3.93283010      -3.00000000       113.662598       1.57079649    
   2.50000000       4.33012676      -2.00000000       113.694946       1.57079542    
   2.50000000       4.33012676      -1.00000000       113.694946       1.57079542    
   3.01776695       3.93283010      -1.00000000       113.694946       1.57079542    
   3.01776695       3.93283010      -2.00000000       113.694946       1.57079542    
   2.50000000       4.33012676      -1.00000000       113.276482       1.57079720    
   2.50000000       4.33012676       0.00000000       113.276482       1.57079720    
   3.01776695       3.93283010       0.00000000       113.276482       1.57079720    
   3.01776695       3.93283010      -1.00000000       113.276482       1.57079720    
   3.01776695       3.93283010      -10.0000000       111.100311      -1.57079554    
   3.01776695       3.93283010      -9.00000000       111.100311      -1.57079554    
   3.53553391       3.53553391      -9.00000000       111.100311      -1.57079554    
   3.53553391       3.53553391      -10.0000000       111.100311      -1.57079554    
   3.01776695       3.93283010      -9.00000000       113.618080      -1.57079566    
   3.01776695       3.93283010      -8.00000000       113.618080      -1.57079566    
   3.53553391       3.53553391      -8.00000000       113.618080      -1.57079566    
   3.53553391       3.53553391      -9.00000000       113.618080      -1.57079566    
   3.01776695       3.93283010      -8.00000000       113.632431      -1.57079542    
   3.01776695       3.93283010      -7.00000000       113.632431      -1.57079542    
   3.53553391       3.53553391      -7.00000000       113.632431      -1.57079542    
   3.53553391       3.53553391      -8.00000000       113.632431      -1.57079542    
   3.01776695       3.93283010      -7.00000000       113.650772      -1.57079518    
   3.01776695       3.93283010      -6.00000000       113.650772      -1.57079518    
   3.53553391       3.53553391      -6.00000000       113.650772      -1.57079518    
   3.53553391       3.53553391      -7.00000000       113.650772      -1.57079518    
   3.01776695       3.93283010      -6.00000000       113.607246      -1.57079530    
   3.01776695       3.93283010      -5.00000000       113.607246      -1.57079530    
   3.53553391       3.53553391      -5.00000000       113.607246      -1.57079530    
   3.53553391       3.53553391      -6.00000000       113.607246      -1.57079530    
   3.01776695       3.93283010      -5.00000000       113.607277      -1.57079542    
   3.01776695       3.93283010      -4.00000000       113.607277      -1.57079542    
   3.53553391       3.53553391      -4.00000000       113.607277      -1.57079542    
   3.53553391       3.53553391      -5.00000000       113.607277      -1.57079542    
   3.01776695       3.93283010      -4.00000000       113.694839      -1.57079470    
   3.01776695       3.93283010      -3.00000000       113.694839      -1.57079470    
   3.53553391       3.53553391      -3.00000000       113.694839      -1.57079470    
   3.53553391       3.53553391      -4.00000000       113.694839      -1.57079470    
   3.01776695       3.93283010      -3.00000000       113.664047      -1.57079458    
   3.01776695       3.93283010      -2.00000000       113.664047      -1.57079458    
   3.53553391       3.53553391      -2.00000000       113.664047      -1.57079458    
   3.53553391       3.53553391      -3.00000000       113.664047      -1.57079458    
   3.01776695       3.93283010      -2.00000000       113.696182      -1.57079422    
   3.01776695       3.93283010      -1.00000000       113.696182      -1.57079422    
   3.53553391       3.53553391      -1.00000000       113.696182      -1.57079422    
   3.53553391       3.53553391      -2.00000000       113.696182      -1.57079422    
   3.01776695       3.93283010      -1.00000000       113.277420      -1.57079387    
   3.01776695       3.93283010       0.00000000       113.277420      -1.57079387    
   3.53553391       3.53553391       0.00000000       113.277420      -1.57079387    
   3.53553391       3.53553391      -1.00000000       113.277420      -1.57079387    
   1.29409504       4.82962894      -10.0000000       111.100609       1.57079649    
   1.29409504       4.82962894      -9.00000000       111.100609       1.57079649    
   1.89704800       4.57987785      -9.00000000       111.100609       1.57079649    
   1.89704800       4.57987785      -10.0000000       111.100609       1.57079649    
   1.29409504       4.82962894      -9.00000000       113.618851       1.57079673    
   1.29409504       4.82962894      -8.00000000       113.618851       1.57079673    
   1.89704800       4.57987785      -8.00000000       113.618851       1.57079673    
   1.89704800       4.57987785      -9.00000000       113.618851       1.57079673    
   1.29409504       4.82962894      -8.00000000       113.632317       1.57079649    
   1.29409504       4.82962894      -7.00000000       113.632317       1.57079649    
   1.89704800       4.57987785      -7.00000000       113.632317       1.57079649    
   1.89704800       4.57987785      -8.00000000       113.632317       1.57079649    
   1.29409504       4.82962894      -7.00000000       113.650925       1.57079637    
   1.29409504       4.82962894      -6.00000000       113.650925       1.57079637    
   1.89704800       4.57987785      -6.00000000       113.650925       1.57079637    
   1.89704800       4.57987785      -7.00000000       113.650925       1.57079637    
   1.29409504       4.82962894      -6.00000000       113.607491       1.57079613    
   1.29409504       4.82962894      -5.00000000       113.607491       1.57079613    
   1.89704800       4.57987785      -5.00000000       113.607491       1.57079613    
   1.89704800       4.57987785      -6.00000000       113.607491       1.57079613    
   1.29409504       4.82962894      -5.00000000       113.607071       1.57079625    
   1.29409504       4.82962894      -4.00000000       113.607071       1.57079625    
   1.89704800       4.57987785      -4.00000000       113.607071       1.57079625    
   1.89704800       4.57987785      -5.00000000       113.607071       1.57079625    
   1.29409504       4.82962894      -4.00000000       113.694374       1.57079649    
   1.29409504       4.82962894      -3.00000000       113.694374       1.57079649    
   1.89704800       4.57987785      -3.00000000       113.694374       1.57079649    