 VARIABLES="X" "Y" "Z" "abs(p) (Pa)" "angle(p) (rad)"
ZONE N=   1080,E =     600, F=FEPOINT, ET=QUADRILATERAL
   4.82962894       1.29409504      -10.0000000       2853.97754      -1.11798477    
   4.82962894       1.29409504      -9.00000000       2853.97754      -1.11798477    
   4.91481400      0.647047520      -9.00000000       2853.97754      -1.11798477    
   4.91481400      0.647047520      -10.0000000       2853.97754      -1.11798477    
   4.82962894       1.29409504      -9.00000000       3688.37549      -1.11902535    
   4.82962894       1.29409504      -8.00000000       3688.37549      -1.11902535    
   4.91481400      0.647047520      -8.00000000       3688.37549      -1.11902535    
   4.91481400      0.647047520      -9.00000000       3688.37549      -1.11902535    
   4.82962894       1.29409504      -8.00000000       4245.87598      -1.08874810    
   4.82962894       1.29409504      -7.00000000       4245.87598      -1.08874810    
   4.91481400      0.647047520      -7.00000000       4245.87598      -1.08874810    
   4.91481400      0.647047520      -8.00000000       4245.87598      -1.08874810    
   4.82962894       1.29409504      -7.00000000       4728.25195      -1.04713631    
   4.82962894       1.29409504      -6.00000000       4728.25195      -1.04713631    
   4.91481400      0.647047520      -6.00000000       4728.25195      -1.04713631    
   4.91481400      0.647047520      -7.00000000       4728.25195      -1.04713631    
   4.82962894       1.29409504      -6.00000000       5210.45947     -0.999881327    
   4.82962894       1.29409504      -5.00000000       5210.45947     -0.999881327    
   4.91481400      0.647047520      -5.00000000       5210.45947     -0.999881327    
   4.91481400      0.647047520      -6.00000000       5210.45947     -0.999881327    
   4.82962894       1.29409504      -5.00000000       5741.93408     -0.950664580    
   4.82962894       1.29409504      -4.00000000       5741.93408     -0.950664580    
   4.91481400      0.647047520      -4.00000000       5741.93408     -0.950664580    
   4.91481400      0.647047520      -5.00000000       5741.93408     -0.950664580    
   4.82962894       1.29409504      -4.00000000       6366.67236     -0.902905285    
   4.82962894       1.29409504      -3.00000000       6366.67236     -0.902905285    
   4.91481400      0.647047520      -3.00000000       6366.67236     -0.902905285    
   4.91481400      0.647047520      -4.00000000       6366.67236     -0.902905285    
   4.82962894       1.29409504      -3.00000000       7128.03711     -0.860042274    
   4.82962894       1.29409504      -2.00000000       7128.03711     -0.860042274    
   4.91481400      0.647047520      -2.00000000       7128.03711     -0.860042274    
   4.91481400      0.647047520      -3.00000000       7128.03711     -0.860042274    
   4.82962894       1.29409504      -2.00000000       8076.99414     -0.825634956    
   4.82962894       1.29409504      -1.00000000       8076.99414     -0.825634956    
   4.91481400      0.647047520      -1.00000000       8076.99414     -0.825634956    
   4.91481400      0.647047520      -2.00000000       8076.99414     -0.825634956    
   4.82962894       1.29409504      -1.00000000       9285.42090     -0.804072917    
   4.82962894       1.29409504       0.00000000       9285.42090     -0.804072917    
   4.91481400      0.647047520       0.00000000       9285.42090     -0.804072917    
   4.91481400      0.647047520      -1.00000000       9285.42090     -0.804072917    
   4.91481400      0.647047520      -10.0000000       2897.05469      -1.11722291    
   4.91481400      0.647047520      -9.00000000       2897.05469      -1.11722291    
   5.00000000       0.00000000      -9.00000000       2897.05469      -1.11722291    
   5.00000000       0.00000000      -10.0000000       2897.05469      -1.11722291    
   4.91481400      0.647047520      -9.00000000       3745.03833      -1.11841762    
   4.91481400      0.647047520      -8.00000000       3745.03833      -1.11841762    
   5.00000000       0.00000000      -8.00000000       3745.03833      -1.11841762    
   5.00000000       0.00000000      -9.00000000       3745.03833      -1.11841762    
   4.91481400      0.647047520      -8.00000000       4311.85449      -1.08818698    
   4.91481400      0.647047520      -7.00000000       4311.85449      -1.08818698    
   5.00000000       0.00000000      -7.00000000       4311.85449      -1.08818698    
   5.00000000       0.00000000      -8.00000000       4311.85449      -1.08818698    
   4.91481400      0.647047520      -7.00000000       4802.34033      -1.04659164    
   4.91481400      0.647047520      -6.00000000       4802.34033      -1.04659164    
   5.00000000       0.00000000      -6.00000000       4802.34033      -1.04659164    
   5.00000000       0.00000000      -7.00000000       4802.34033      -1.04659164    
   4.91481400      0.647047520      -6.00000000       5292.68994     -0.999347031    
   4.91481400      0.647047520      -5.00000000       5292.68994     -0.999347031    
   5.00000000       0.00000000      -5.00000000       5292.68994     -0.999347031    
   5.00000000       0.00000000      -6.00000000       5292.68994     -0.999347031    
   4.91481400      0.647047520      -5.00000000       5833.13135     -0.950142086    
   4.91481400      0.647047520      -4.00000000       5833.13135     -0.950142086    
   5.00000000       0.00000000      -4.00000000       5833.13135     -0.950142086    
   5.00000000       0.00000000      -5.00000000       5833.13135     -0.950142086    
   4.91481400      0.647047520      -4.00000000       6468.39453     -0.902403176    
   4.91481400      0.647047520      -3.00000000       6468.39453     -0.902403176    
   5.00000000       0.00000000      -3.00000000       6468.39453     -0.902403176    
   5.00000000       0.00000000      -4.00000000       6468.39453     -0.902403176    
   4.91481400      0.647047520      -3.00000000       7242.56104     -0.859568715    
   4.91481400      0.647047520      -2.00000000       7242.56104     -0.859568715    
   5.00000000       0.00000000      -2.00000000       7242.56104     -0.859568715    
   5.00000000       0.00000000      -3.00000000       7242.56104     -0.859568715    
   4.91481400      0.647047520      -2.00000000       8207.40625     -0.825199425    
   4.91481400      0.647047520      -1.00000000       8207.40625     -0.825199425    
   5.00000000       0.00000000      -1.00000000       8207.40625     -0.825199425    
   5.00000000       0.00000000      -2.00000000       8207.40625     -0.825199425    
   4.91481400      0.647047520      -1.00000000       9436.06836     -0.803685308    
   4.91481400      0.647047520       0.00000000       9436.06836     -0.803685308    
   5.00000000       0.00000000       0.00000000       9436.06836     -0.803685308    
   5.00000000       0.00000000      -1.00000000       9436.06836     -0.803685308    
   4.33012676       2.50000000      -10.0000000       2616.40796      -1.11882877    
   4.33012676       2.50000000      -9.00000000       2616.40796      -1.11882877    
   4.57987785       1.89704800      -9.00000000       2616.40796      -1.11882877    
   4.57987785       1.89704800      -10.0000000       2616.40796      -1.11882877    
   4.33012676       2.50000000      -9.00000000       3380.35913      -1.11969817    
   4.33012676       2.50000000      -8.00000000       3380.35913      -1.11969817    
   4.57987785       1.89704800      -8.00000000       3380.35913      -1.11969817    
   4.57987785       1.89704800      -9.00000000       3380.35913      -1.11969817    
   4.33012676       2.50000000      -8.00000000       3890.55029      -1.08937109    
   4.33012676       2.50000000      -7.00000000       3890.55029      -1.08937109    
   4.57987785       1.89704800      -7.00000000       3890.55029      -1.08937109    
   4.57987785       1.89704800      -8.00000000       3890.55029      -1.08937109    
   4.33012676       2.50000000      -7.00000000       4331.94092      -1.04773998    
   4.33012676       2.50000000      -6.00000000       4331.94092      -1.04773998    
   4.57987785       1.89704800      -6.00000000       4331.94092      -1.04773998    
   4.57987785       1.89704800      -7.00000000       4331.94092      -1.04773998    
   4.33012676       2.50000000      -6.00000000       4773.14893      -1.00047410    
   4.33012676       2.50000000      -5.00000000       4773.14893      -1.00047410    
   4.57987785       1.89704800      -5.00000000       4773.14893      -1.00047410    
   4.57987785       1.89704800      -6.00000000       4773.14893      -1.00047410    
   4.33012676       2.50000000      -5.00000000       5259.43066     -0.951243758    
   4.33012676       2.50000000      -4.00000000       5259.43066     -0.951243758    
   4.57987785       1.89704800      -4.00000000       5259.43066     -0.951243758    
   4.57987785       1.89704800      -5.00000000       5259.43066     -0.951243758    
   4.33012676       2.50000000      -4.00000000       5831.06689     -0.903462827    
   4.33012676       2.50000000      -3.00000000       5831.06689     -0.903462827    
   4.57987785       1.89704800      -3.00000000       5831.06689     -0.903462827    
   4.57987785       1.89704800      -4.00000000       5831.06689     -0.903462827    
   4.33012676       2.50000000      -3.00000000       6527.75000     -0.860567927    
   4.33012676       2.50000000      -2.00000000       6527.75000     -0.860567927    
   4.57987785       1.89704800      -2.00000000       6527.75000     -0.860567927    
   4.57987785       1.89704800      -3.00000000       6527.75000     -0.860567927    
   4.33012676       2.50000000      -2.00000000       7396.15234     -0.826118052    
   4.33012676       2.50000000      -1.00000000       7396.15234     -0.826118052    
   4.57987785       1.89704800      -1.00000000       7396.15234     -0.826118052    
   4.57987785       1.89704800      -2.00000000       7396.15234     -0.826118052    
   4.33012676       2.50000000      -1.00000000       8501.99316     -0.804503441    
   4.33012676       2.50000000       0.00000000       8501.99316     -0.804503441    
   4.57987785       1.89704800       0.00000000       8501.99316     -0.804503441    
   4.57987785       1.89704800      -1.00000000       8501.99316     -0.804503441    
   4.57987785       1.89704800      -10.0000000       2742.70508      -1.11642969    
   4.57987785       1.89704800      -9.00000000       2742.70508      -1.11642969    
   4.82962894       1.29409504      -9.00000000       2742.70508      -1.11642969    
   4.82962894       1.29409504      -10.0000000       2742.70508      -1.11642969    
   4.57987785       1.89704800      -9.00000000       3546.48267      -1.11778617    
   4.57987785       1.89704800      -8.00000000       3546.48267      -1.11778617    
   4.82962894       1.29409504      -8.00000000       3546.48267      -1.11778617    
   4.82962894       1.29409504      -9.00000000       3546.48267      -1.11778617    
   4.57987785       1.89704800      -8.00000000       4083.99121      -1.08760333    
   4.57987785       1.89704800      -7.00000000       4083.99121      -1.08760333    
   4.82962894       1.29409504      -7.00000000       4083.99121      -1.08760333    
   4.82962894       1.29409504      -8.00000000       4083.99121      -1.08760333    
   4.57987785       1.89704800      -7.00000000       4549.15723      -1.04602551    
   4.57987785       1.89704800      -6.00000000       4549.15723      -1.04602551    
   4.82962894       1.29409504      -6.00000000       4549.15723      -1.04602551    
   4.82962894       1.29409504      -7.00000000       4549.15723      -1.04602551    
   4.57987785       1.89704800      -6.00000000       5014.23291     -0.998791814    
   4.57987785       1.89704800      -5.00000000       5014.23291     -0.998791814    
   4.82962894       1.29409504      -5.00000000       5014.23291     -0.998791814    
   4.82962894       1.29409504      -6.00000000       5014.23291     -0.998791814    
   4.57987785       1.89704800      -5.00000000       5526.81299     -0.949599743    
   4.57987785       1.89704800      -4.00000000       5526.81299     -0.949599743    
   4.82962894       1.29409504      -4.00000000       5526.81299     -0.949599743    
   4.82962894       1.29409504      -5.00000000       5526.81299     -0.949599743    
   4.57987785       1.89704800      -4.00000000       6129.31494     -0.901880682    
   4.57987785       1.89704800      -3.00000000       6129.31494     -0.901880682    
   4.82962894       1.29409504      -3.00000000       6129.31494     -0.901880682    
   4.82962894       1.29409504      -4.00000000       6129.31494     -0.901880682    
   4.57987785       1.89704800      -3.00000000       6863.51611     -0.859076679    
   4.57987785       1.89704800      -2.00000000       6863.51611     -0.859076679    
   4.82962894       1.29409504      -2.00000000       6863.51611     -0.859076679    
   4.82962894       1.29409504      -3.00000000       6863.51611     -0.859076679    
   4.57987785       1.89704800      -2.00000000       7778.49805     -0.824747503    
   4.57987785       1.89704800      -1.00000000       7778.49805     -0.824747503    
   4.82962894       1.29409504      -1.00000000       7778.49805     -0.824747503    
   4.82962894       1.29409504      -2.00000000       7778.49805     -0.824747503    
   4.57987785       1.89704800      -1.00000000       8943.65918     -0.803283393    
   4.57987785       1.89704800       0.00000000       8943.65918     -0.803283393    
   4.82962894       1.29409504       0.00000000       8943.65918     -0.803283393    
   4.82962894       1.29409504      -1.00000000       8943.65918     -0.803283393    
   3.53553391       3.53553391      -10.0000000       2200.53809      -1.11992311    
   3.53553391       3.53553391      -9.00000000       2200.53809      -1.11992311    
   3.93283010       3.01776695      -9.00000000       2200.53809      -1.11992311    
   3.93283010       3.01776695      -10.0000000       2200.53809      -1.11992311    
   3.53553391       3.53553391      -9.00000000       2841.97852      -1.12057161    
   3.53553391       3.53553391      -8.00000000       2841.97852      -1.12057161    
   3.93283010       3.01776695      -8.00000000       2841.97852      -1.12057161    
   3.93283010       3.01776695      -9.00000000       2841.97852      -1.12057161    
   3.53553391       3.53553391      -8.00000000       3270.09082      -1.09017932    
   3.53553391       3.53553391      -7.00000000       3270.09082      -1.09017932    
   3.93283010       3.01776695      -7.00000000       3270.09082      -1.09017932    
   3.93283010       3.01776695      -8.00000000       3270.09082      -1.09017932    
   3.53553391       3.53553391      -7.00000000       3640.42139      -1.04852486    
   3.53553391       3.53553391      -6.00000000       3640.42139      -1.04852486    
   3.93283010       3.01776695      -6.00000000       3640.42139      -1.04852486    
   3.93283010       3.01776695      -7.00000000       3640.42139      -1.04852486    
   3.53553391       3.53553391      -6.00000000       4010.55688      -1.00124443    
   3.53553391       3.53553391      -5.00000000       4010.55688      -1.00124443    
   3.93283010       3.01776695      -5.00000000       4010.55688      -1.00124443    
   3.93283010       3.01776695      -6.00000000       4010.55688      -1.00124443    
   3.53553391       3.53553391      -5.00000000       4418.51025     -0.951996863    
   3.53553391       3.53553391      -4.00000000       4418.51025     -0.951996863    
   3.93283010       3.01776695      -4.00000000       4418.51025     -0.951996863    
   3.93283010       3.01776695      -5.00000000       4418.51025     -0.951996863    
   3.53553391       3.53553391      -4.00000000       4898.09082     -0.904187977    
   3.53553391       3.53553391      -3.00000000       4898.09082     -0.904187977    
   3.93283010       3.01776695      -3.00000000       4898.09082     -0.904187977    
   3.93283010       3.01776695      -4.00000000       4898.09082     -0.904187977    
   3.53553391       3.53553391      -3.00000000       5482.61328     -0.861251414    
   3.53553391       3.53553391      -2.00000000       5482.61328     -0.861251414    
   3.93283010       3.01776695      -2.00000000       5482.61328     -0.861251414    
   3.93283010       3.01776695      -3.00000000       5482.61328     -0.861251414    
   3.53553391       3.53553391      -2.00000000       6211.27832     -0.826746464    
   3.53553391       3.53553391      -1.00000000       6211.27832     -0.826746464    
   3.93283010       3.01776695      -1.00000000       6211.27832     -0.826746464    
   3.93283010       3.01776695      -2.00000000       6211.27832     -0.826746464    
   3.53553391       3.53553391      -1.00000000       7139.17041     -0.805062115    
   3.53553391       3.53553391       0.00000000       7139.17041     -0.805062115    
   3.93283010       3.01776695       0.00000000       7139.17041     -0.805062115    
   3.93283010       3.01776695      -1.00000000       7139.17041     -0.805062115    
   3.93283010       3.01776695      -10.0000000       2401.44531      -1.11547315    
   3.93283010       3.01776695      -9.00000000       2401.44531      -1.11547315    
   4.33012676       2.50000000      -9.00000000       2401.44531      -1.11547315    
   4.33012676       2.50000000      -10.0000000       2401.44531      -1.11547315    
   3.93283010       3.01776695      -9.00000000       3106.24341      -1.11702406    
   3.93283010       3.01776695      -8.00000000       3106.24341      -1.11702406    
   4.33012676       2.50000000      -8.00000000       3106.24341      -1.11702406    
   4.33012676       2.50000000      -9.00000000       3106.24341      -1.11702406    
   3.93283010       3.01776695      -8.00000000       3577.80933      -1.08689964    
   3.93283010       3.01776695      -7.00000000       3577.80933      -1.08689964    
   4.33012676       2.50000000      -7.00000000       3577.80933      -1.08689964    
   4.33012676       2.50000000      -8.00000000       3577.80933      -1.08689964    
   3.93283010       3.01776695      -7.00000000       3985.95801      -1.04534304    
   3.93283010       3.01776695      -6.00000000       3985.95801      -1.04534304    
   4.33012676       2.50000000      -6.00000000       3985.95801      -1.04534304    
   4.33012676       2.50000000      -7.00000000       3985.95801      -1.04534304    
   3.93283010       3.01776695      -6.00000000       4394.06543     -0.998122573    
   3.93283010       3.01776695      -5.00000000       4394.06543     -0.998122573    
   4.33012676       2.50000000      -5.00000000       4394.06543     -0.998122573    
   4.33012676       2.50000000      -6.00000000       4394.06543     -0.998122573    
   3.93283010       3.01776695      -5.00000000       4843.85938     -0.948945999    
   3.93283010       3.01776695      -4.00000000       4843.85938     -0.948945999    
   4.33012676       2.50000000      -4.00000000       4843.85938     -0.948945999    
   4.33012676       2.50000000      -5.00000000       4843.85938     -0.948945999    
   3.93283010       3.01776695      -4.00000000       5372.52979     -0.901252151    
   3.93283010       3.01776695      -3.00000000       5372.52979     -0.901252151    
   4.33012676       2.50000000      -3.00000000       5372.52979     -0.901252151    
   4.33012676       2.50000000      -4.00000000       5372.52979     -0.901252151    
   3.93283010       3.01776695      -3.00000000       6016.73584     -0.858485103    
   3.93283010       3.01776695      -2.00000000       6016.73584     -0.858485103    
   4.33012676       2.50000000      -2.00000000       6016.73584     -0.858485103    
   4.33012676       2.50000000      -3.00000000       6016.73584     -0.858485103    
   3.93283010       3.01776695      -2.00000000       6819.49805     -0.824203432    
   3.93283010       3.01776695      -1.00000000       6819.49805     -0.824203432    
   4.33012676       2.50000000      -1.00000000       6819.49805     -0.824203432    
   4.33012676       2.50000000      -2.00000000       6819.49805     -0.824203432    
   3.93283010       3.01776695      -1.00000000       7841.76172     -0.802799523    
   3.93283010       3.01776695       0.00000000       7841.76172     -0.802799523    
   4.33012676       2.50000000       0.00000000       7841.76172     -0.802799523    
   4.33012676       2.50000000      -1.00000000       7841.76172     -0.802799523    
   2.50000000       4.33012676      -10.0000000       1634.70789      -1.12167418    
   2.50000000       4.33012676      -9.00000000       1634.70789      -1.12167418    
   3.01776695       3.93283010      -9.00000000       1634.70789      -1.12167418    
   3.01776695       3.93283010      -10.0000000       1634.70789      -1.12167418    
   2.50000000       4.33012676      -9.00000000       2109.92651      -1.12197101    
   2.50000000       4.33012676      -8.00000000       2109.92651      -1.12197101    
   3.01776695       3.93283010      -8.00000000       2109.92651      -1.12197101    
   3.01776695       3.93283010      -9.00000000       2109.92651      -1.12197101    
   2.50000000       4.33012676      -8.00000000       2426.78052      -1.09147453    
   2.50000000       4.33012676      -7.00000000       2426.78052      -1.09147453    
   3.01776695       3.93283010      -7.00000000       2426.78052      -1.09147453    
   3.01776695       3.93283010      -8.00000000       2426.78052      -1.09147453    
   2.50000000       4.33012676      -7.00000000       2700.81543      -1.04978263    
   2.50000000       4.33012676      -6.00000000       2700.81543      -1.04978263    
   3.01776695       3.93283010      -6.00000000       2700.81543      -1.04978263    
   3.01776695       3.93283010      -7.00000000       2700.81543      -1.04978263    
   2.50000000       4.33012676      -6.00000000       2974.65503      -1.00248003    
   2.50000000       4.33012676      -5.00000000       2974.65503      -1.00248003    
   3.01776695       3.93283010      -5.00000000       2974.65503      -1.00248003    
   3.01776695       3.93283010      -6.00000000       2974.65503      -1.00248003    
   2.50000000       4.33012676      -5.00000000       3276.47754     -0.953205645    
   2.50000000       4.33012676      -4.00000000       3276.47754     -0.953205645    
   3.01776695       3.93283010      -4.00000000       3276.47754     -0.953205645    
   3.01776695       3.93283010      -5.00000000       3276.47754     -0.953205645    
   2.50000000       4.33012676      -4.00000000       3631.32300     -0.905351639    
   2.50000000       4.33012676      -3.00000000       3631.32300     -0.905351639    
   3.01776695       3.93283010      -3.00000000       3631.32300     -0.905351639    
   3.01776695       3.93283010      -4.00000000       3631.32300     -0.905351639    
   2.50000000       4.33012676      -3.00000000       4063.84644     -0.862348676    
   2.50000000       4.33012676      -2.00000000       4063.84644     -0.862348676    
   3.01776695       3.93283010      -2.00000000       4063.84644     -0.862348676    
   3.01776695       3.93283010      -3.00000000       4063.84644     -0.862348676    
   2.50000000       4.33012676      -2.00000000       4603.11816     -0.827756047    
   2.50000000       4.33012676      -1.00000000       4603.11816     -0.827756047    
   3.01776695       3.93283010      -1.00000000       4603.11816     -0.827756047    
   3.01776695       3.93283010      -2.00000000       4603.11816     -0.827756047    
   2.50000000       4.33012676      -1.00000000       5289.83008     -0.805960655    
   2.50000000       4.33012676       0.00000000       5289.83008     -0.805960655    
   3.01776695       3.93283010       0.00000000       5289.83008     -0.805960655    
   3.01776695       3.93283010      -1.00000000       5289.83008     -0.805960655    
   3.01776695       3.93283010      -10.0000000       1896.53540      -1.11409032    
   3.01776695       3.93283010      -9.00000000       1896.53540      -1.11409032    
   3.53553391       3.53553391      -9.00000000       1896.53540      -1.11409032    
   3.53553391       3.53553391      -10.0000000       1896.53540      -1.11409032    
   3.01776695       3.93283010      -9.00000000       2454.32007      -1.11592400    
   3.01776695       3.93283010      -8.00000000       2454.32007      -1.11592400    
   3.53553391       3.53553391      -8.00000000       2454.32007      -1.11592400    
   3.53553391       3.53553391      -9.00000000       2454.32007      -1.11592400    
   3.01776695       3.93283010      -8.00000000       2827.81055      -1.08588326    
   3.01776695       3.93283010      -7.00000000       2827.81055      -1.08588326    
   3.53553391       3.53553391      -7.00000000       2827.81055      -1.08588326    
   3.53553391       3.53553391      -8.00000000       2827.81055      -1.08588326    
   3.01776695       3.93283010      -7.00000000       3151.12549      -1.04435778    
   3.01776695       3.93283010      -6.00000000       3151.12549      -1.04435778    
   3.53553391       3.53553391      -6.00000000       3151.12549      -1.04435778    
   3.53553391       3.53553391      -7.00000000       3151.12549      -1.04435778    
   3.01776695       3.93283010      -6.00000000       3474.45386     -0.997157037    
   3.01776695       3.93283010      -5.00000000       3474.45386     -0.997157037    
   3.53553391       3.53553391      -5.00000000       3474.45386     -0.997157037    
   3.53553391       3.53553391      -6.00000000       3474.45386     -0.997157037    
   3.01776695       3.93283010      -5.00000000       3830.80249     -0.948003292    
   3.01776695       3.93283010      -4.00000000       3830.80249     -0.948003292    
   3.53553391       3.53553391      -4.00000000       3830.80249     -0.948003292    
   3.53553391       3.53553391      -5.00000000       3830.80249     -0.948003292    
   3.01776695       3.93283010      -4.00000000       4249.61865     -0.900345683    
   3.01776695       3.93283010      -3.00000000       4249.61865     -0.900345683    
   3.53553391       3.53553391      -3.00000000       4249.61865     -0.900345683    
   3.53553391       3.53553391      -4.00000000       4249.61865     -0.900345683    
   3.01776695       3.93283010      -3.00000000       4759.92871     -0.857630908    
   3.01776695       3.93283010      -2.00000000       4759.92871     -0.857630908    
   3.53553391       3.53553391      -2.00000000       4759.92871     -0.857630908    
   3.53553391       3.53553391      -3.00000000       4759.92871     -0.857630908    
   3.01776695       3.93283010      -2.00000000       5395.76416     -0.823418498    
   3.01776695       3.93283010      -1.00000000       5395.76416     -0.823418498    
   3.53553391       3.53553391      -1.00000000       5395.76416     -0.823418498    
   3.53553391       3.53553391      -2.00000000       5395.76416     -0.823418498    
   3.01776695       3.93283010      -1.00000000       6205.45557     -0.802102447    
   3.01776695       3.93283010       0.00000000       6205.45557     -0.802102447    
   3.53553391       3.53553391       0.00000000       6205.45557     -0.802102447    
   3.53553391       3.53553391      -1.00000000       6205.45557     -0.802102447    
   1.29409504       4.82962894      -10.0000000       957.485840      -1.12570024    
   1.29409504       4.82962894      -9.00000000       957.485840      -1.12570024    
   1.89704800       4.57987785      -9.00000000       957.485840      -1.12570024    
   1.89704800       4.57987785      -10.0000000       957.485840      -1.12570024    
   1.29409504       4.82962894      -9.00000000       1234.09192      -1.12519324    
   1.29409504       4.82962894      -8.00000000       1234.09192      -1.12519324    
   1.89704800       4.57987785      -8.00000000       1234.09192      -1.12519324    
   1.89704800       4.57987785      -9.00000000       1234.09192      -1.12519324    
   1.29409504       4.82962894      -8.00000000       1418.10059      -1.09446180    
   1.29409504       4.82962894      -7.00000000       1418.10059      -1.09446180    
   1.89704800       4.57987785      -7.00000000       1418.10059      -1.09446180    
   1.89704800       4.57987785      -8.00000000       1418.10059      -1.09446180    
   1.29409504       4.82962894      -7.00000000       1577.16113      -1.05268657    
   1.29409504       4.82962894      -6.00000000       1577.16113      -1.05268657    
   1.89704800       4.57987785      -6.00000000       1577.16113      -1.05268657    
   1.89704800       4.57987785      -7.00000000       1577.16113      -1.05268657    
   1.29409504       4.82962894      -6.00000000       1736.04480      -1.00533378    
   1.29409504       4.82962894      -5.00000000       1736.04480      -1.00533378    
   1.89704800       4.57987785      -5.00000000       1736.04480      -1.00533378    
   1.89704800       4.57987785      -6.00000000       1736.04480      -1.00533378    
   1.29409504       4.82962894      -5.00000000       1911.17053     -0.955999076    
   1.29409504       4.82962894      -4.00000000       1911.17053     -0.955999076    
   1.89704800       4.57987785      -4.00000000       1911.17053     -0.955999076    
   1.89704800       4.57987785      -5.00000000       1911.17053     -0.955999076    
   1.29409504       4.82962894      -4.00000000       2117.09351     -0.908044219    
   1.29409504       4.82962894      -3.00000000       2117.09351     -0.908044219    
   1.89704800       4.57987785      -3.00000000       2117.09351     -0.908044219    