 VARIABLES="X" "Y" "Z" "abs(p) (Pa)" "angle(p) (rad)"
ZONE N=   1080,E =     600, F=FEPOINT, ET=QUADRILATERAL
   4.82962894       1.29409504      -10.0000000       3310.86450      -1.29716539    
   4.82962894       1.29409504      -9.00000000       3310.86450      -1.29716539    
   4.91481400      0.647047520      -9.00000000       3310.86450      -1.29716539    
   4.91481400      0.647047520      -10.0000000       3310.86450      -1.29716539    
   4.82962894       1.29409504      -9.00000000       4084.98291      -1.31292951    
   4.82962894       1.29409504      -8.00000000       4084.98291      -1.31292951    
   4.91481400      0.647047520      -8.00000000       4084.98291      -1.31292951    
   4.91481400      0.647047520      -9.00000000       4084.98291      -1.31292951    
   4.82962894       1.29409504      -8.00000000       5793.57617      -1.36937904    
   4.82962894       1.29409504      -7.00000000       5793.57617      -1.36937904    
   4.91481400      0.647047520      -7.00000000       5793.57617      -1.36937904    
   4.91481400      0.647047520      -8.00000000       5793.57617      -1.36937904    
   4.82962894       1.29409504      -7.00000000       7915.55615      -1.40988064    
   4.82962894       1.29409504      -6.00000000       7915.55615      -1.40988064    
   4.91481400      0.647047520      -6.00000000       7915.55615      -1.40988064    
   4.91481400      0.647047520      -7.00000000       7915.55615      -1.40988064    
   4.82962894       1.29409504      -6.00000000       10266.2119      -1.43641686    
   4.82962894       1.29409504      -5.00000000       10266.2119      -1.43641686    
   4.91481400      0.647047520      -5.00000000       10266.2119      -1.43641686    
   4.91481400      0.647047520      -6.00000000       10266.2119      -1.43641686    
   4.82962894       1.29409504      -5.00000000       12738.5439      -1.45407295    
   4.82962894       1.29409504      -4.00000000       12738.5439      -1.45407295    
   4.91481400      0.647047520      -4.00000000       12738.5439      -1.45407295    
   4.91481400      0.647047520      -5.00000000       12738.5439      -1.45407295    
   4.82962894       1.29409504      -4.00000000       15245.1709      -1.46602345    
   4.82962894       1.29409504      -3.00000000       15245.1709      -1.46602345    
   4.91481400      0.647047520      -3.00000000       15245.1709      -1.46602345    
   4.91481400      0.647047520      -4.00000000       15245.1709      -1.46602345    
   4.82962894       1.29409504      -3.00000000       17704.6152      -1.47411776    
   4.82962894       1.29409504      -2.00000000       17704.6152      -1.47411776    
   4.91481400      0.647047520      -2.00000000       17704.6152      -1.47411776    
   4.91481400      0.647047520      -3.00000000       17704.6152      -1.47411776    
   4.82962894       1.29409504      -2.00000000       20032.2598      -1.47940695    
   4.82962894       1.29409504      -1.00000000       20032.2598      -1.47940695    
   4.91481400      0.647047520      -1.00000000       20032.2598      -1.47940695    
   4.91481400      0.647047520      -2.00000000       20032.2598      -1.47940695    
   4.82962894       1.29409504      -1.00000000       22071.4375      -1.48223090    
   4.82962894       1.29409504       0.00000000       22071.4375      -1.48223090    
   4.91481400      0.647047520       0.00000000       22071.4375      -1.48223090    
   4.91481400      0.647047520      -1.00000000       22071.4375      -1.48223090    
   4.91481400      0.647047520      -10.0000000       3371.47021      -1.29761374    
   4.91481400      0.647047520      -9.00000000       3371.47021      -1.29761374    
   5.00000000       0.00000000      -9.00000000       3371.47021      -1.29761374    
   5.00000000       0.00000000      -10.0000000       3371.47021      -1.29761374    
   4.91481400      0.647047520      -9.00000000       4155.94727      -1.31312072    
   4.91481400      0.647047520      -8.00000000       4155.94727      -1.31312072    
   5.00000000       0.00000000      -8.00000000       4155.94727      -1.31312072    
   5.00000000       0.00000000      -9.00000000       4155.94727      -1.31312072    
   4.91481400      0.647047520      -8.00000000       5889.82129      -1.36937511    
   4.91481400      0.647047520      -7.00000000       5889.82129      -1.36937511    
   5.00000000       0.00000000      -7.00000000       5889.82129      -1.36937511    
   5.00000000       0.00000000      -8.00000000       5889.82129      -1.36937511    
   4.91481400      0.647047520      -7.00000000       8043.86279      -1.40981376    
   4.91481400      0.647047520      -6.00000000       8043.86279      -1.40981376    
   5.00000000       0.00000000      -6.00000000       8043.86279      -1.40981376    
   5.00000000       0.00000000      -7.00000000       8043.86279      -1.40981376    
   4.91481400      0.647047520      -6.00000000       10430.3320      -1.43633139    
   4.91481400      0.647047520      -5.00000000       10430.3320      -1.43633139    
   5.00000000       0.00000000      -5.00000000       10430.3320      -1.43633139    
   5.00000000       0.00000000      -6.00000000       10430.3320      -1.43633139    
   4.91481400      0.647047520      -5.00000000       12940.5137      -1.45398331    
   4.91481400      0.647047520      -4.00000000       12940.5137      -1.45398331    
   5.00000000       0.00000000      -4.00000000       12940.5137      -1.45398331    
   5.00000000       0.00000000      -5.00000000       12940.5137      -1.45398331    
   4.91481400      0.647047520      -4.00000000       15485.4756      -1.46593380    
   4.91481400      0.647047520      -3.00000000       15485.4756      -1.46593380    
   5.00000000       0.00000000      -3.00000000       15485.4756      -1.46593380    
   5.00000000       0.00000000      -4.00000000       15485.4756      -1.46593380    
   4.91481400      0.647047520      -3.00000000       17982.5273      -1.47402883    
   4.91481400      0.647047520      -2.00000000       17982.5273      -1.47402883    
   5.00000000       0.00000000      -2.00000000       17982.5273      -1.47402883    
   5.00000000       0.00000000      -3.00000000       17982.5273      -1.47402883    
   4.91481400      0.647047520      -2.00000000       20345.5859      -1.47931767    
   4.91481400      0.647047520      -1.00000000       20345.5859      -1.47931767    
   5.00000000       0.00000000      -1.00000000       20345.5859      -1.47931767    
   5.00000000       0.00000000      -2.00000000       20345.5859      -1.47931767    
   4.91481400      0.647047520      -1.00000000       22415.7070      -1.48214030    
   4.91481400      0.647047520       0.00000000       22415.7070      -1.48214030    
   5.00000000       0.00000000       0.00000000       22415.7070      -1.48214030    
   5.00000000       0.00000000      -1.00000000       22415.7070      -1.48214030    
   4.33012676       2.50000000      -10.0000000       3024.62671      -1.29666471    
   4.33012676       2.50000000      -9.00000000       3024.62671      -1.29666471    
   4.57987785       1.89704800      -9.00000000       3024.62671      -1.29666471    
   4.57987785       1.89704800      -10.0000000       3024.62671      -1.29666471    
   4.33012676       2.50000000      -9.00000000       3735.63013      -1.31271720    
   4.33012676       2.50000000      -8.00000000       3735.63013      -1.31271720    
   4.57987785       1.89704800      -8.00000000       3735.63013      -1.31271720    
   4.57987785       1.89704800      -9.00000000       3735.63013      -1.31271720    
   4.33012676       2.50000000      -8.00000000       5302.50928      -1.36938405    
   4.33012676       2.50000000      -7.00000000       5302.50928      -1.36938405    
   4.57987785       1.89704800      -7.00000000       5302.50928      -1.36938405    
   4.57987785       1.89704800      -8.00000000       5302.50928      -1.36938405    
   4.33012676       2.50000000      -7.00000000       7247.81152      -1.40995514    
   4.33012676       2.50000000      -6.00000000       7247.81152      -1.40995514    
   4.57987785       1.89704800      -6.00000000       7247.81152      -1.40995514    
   4.57987785       1.89704800      -7.00000000       7247.81152      -1.40995514    
   4.33012676       2.50000000      -6.00000000       9402.46484      -1.43651235    
   4.33012676       2.50000000      -5.00000000       9402.46484      -1.43651235    
   4.57987785       1.89704800      -5.00000000       9402.46484      -1.43651235    
   4.57987785       1.89704800      -6.00000000       9402.46484      -1.43651235    
   4.33012676       2.50000000      -5.00000000       11668.4746      -1.45417202    
   4.33012676       2.50000000      -4.00000000       11668.4746      -1.45417202    
   4.57987785       1.89704800      -4.00000000       11668.4746      -1.45417202    
   4.57987785       1.89704800      -5.00000000       11668.4746      -1.45417202    
   4.33012676       2.50000000      -4.00000000       13965.9395      -1.46612334    
   4.33012676       2.50000000      -3.00000000       13965.9395      -1.46612334    
   4.57987785       1.89704800      -3.00000000       13965.9395      -1.46612334    
   4.57987785       1.89704800      -4.00000000       13965.9395      -1.46612334    
   4.33012676       2.50000000      -3.00000000       16220.1729      -1.47421658    
   4.33012676       2.50000000      -2.00000000       16220.1729      -1.47421658    
   4.57987785       1.89704800      -2.00000000       16220.1729      -1.47421658    
   4.57987785       1.89704800      -3.00000000       16220.1729      -1.47421658    
   4.33012676       2.50000000      -2.00000000       18353.7656      -1.47950578    
   4.33012676       2.50000000      -1.00000000       18353.7656      -1.47950578    
   4.57987785       1.89704800      -1.00000000       18353.7656      -1.47950578    
   4.57987785       1.89704800      -2.00000000       18353.7656      -1.47950578    
   4.33012676       2.50000000      -1.00000000       20223.0488      -1.48233163    
   4.33012676       2.50000000       0.00000000       20223.0488      -1.48233163    
   4.57987785       1.89704800       0.00000000       20223.0488      -1.48233163    
   4.57987785       1.89704800      -1.00000000       20223.0488      -1.48233163    
   4.57987785       1.89704800      -10.0000000       3202.31543      -1.29807734    
   4.57987785       1.89704800      -9.00000000       3202.31543      -1.29807734    
   4.82962894       1.29409504      -9.00000000       3202.31543      -1.29807734    
   4.82962894       1.29409504      -10.0000000       3202.31543      -1.29807734    
   4.57987785       1.89704800      -9.00000000       3943.68774      -1.31331873    
   4.57987785       1.89704800      -8.00000000       3943.68774      -1.31331873    
   4.82962894       1.29409504      -8.00000000       3943.68774      -1.31331873    
   4.82962894       1.29409504      -9.00000000       3943.68774      -1.31331873    
   4.57987785       1.89704800      -8.00000000       5584.68115      -1.36937082    
   4.57987785       1.89704800      -7.00000000       5584.68115      -1.36937082    
   4.82962894       1.29409504      -7.00000000       5584.68115      -1.36937082    
   4.82962894       1.29409504      -8.00000000       5584.68115      -1.36937082    
   4.57987785       1.89704800      -7.00000000       7623.99902      -1.40974379    
   4.57987785       1.89704800      -6.00000000       7623.99902      -1.40974379    
   4.82962894       1.29409504      -6.00000000       7623.99902      -1.40974379    
   4.82962894       1.29409504      -7.00000000       7623.99902      -1.40974379    
   4.57987785       1.89704800      -6.00000000       9883.66016      -1.43624258    
   4.57987785       1.89704800      -5.00000000       9883.66016      -1.43624258    
   4.82962894       1.29409504      -5.00000000       9883.66016      -1.43624258    
   4.82962894       1.29409504      -6.00000000       9883.66016      -1.43624258    
   4.57987785       1.89704800      -5.00000000       12260.6045      -1.45389032    
   4.57987785       1.89704800      -4.00000000       12260.6045      -1.45389032    
   4.82962894       1.29409504      -4.00000000       12260.6045      -1.45389032    
   4.82962894       1.29409504      -5.00000000       12260.6045      -1.45389032    
   4.57987785       1.89704800      -4.00000000       14670.4561      -1.46584094    
   4.57987785       1.89704800      -3.00000000       14670.4561      -1.46584094    
   4.82962894       1.29409504      -3.00000000       14670.4561      -1.46584094    
   4.82962894       1.29409504      -4.00000000       14670.4561      -1.46584094    
   4.57987785       1.89704800      -3.00000000       17034.9629      -1.47393632    
   4.57987785       1.89704800      -2.00000000       17034.9629      -1.47393632    
   4.82962894       1.29409504      -2.00000000       17034.9629      -1.47393632    
   4.82962894       1.29409504      -3.00000000       17034.9629      -1.47393632    
   4.57987785       1.89704800      -2.00000000       19272.3828      -1.47922504    
   4.57987785       1.89704800      -1.00000000       19272.3828      -1.47922504    
   4.82962894       1.29409504      -1.00000000       19272.3828      -1.47922504    
   4.82962894       1.29409504      -2.00000000       19272.3828      -1.47922504    
   4.57987785       1.89704800      -1.00000000       21232.3535      -1.48204613    
   4.57987785       1.89704800       0.00000000       21232.3535      -1.48204613    
   4.82962894       1.29409504       0.00000000       21232.3535      -1.48204613    
   4.82962894       1.29409504      -1.00000000       21232.3535      -1.48204613    
   3.53553391       3.53553391      -10.0000000       2532.26880      -1.29601085    
   3.53553391       3.53553391      -9.00000000       2532.26880      -1.29601085    
   3.93283010       3.01776695      -9.00000000       2532.26880      -1.29601085    
   3.93283010       3.01776695      -10.0000000       2532.26880      -1.29601085    
   3.53553391       3.53553391      -9.00000000       3131.70435      -1.31244087    
   3.53553391       3.53553391      -8.00000000       3131.70435      -1.31244087    
   3.93283010       3.01776695      -8.00000000       3131.70435      -1.31244087    
   3.93283010       3.01776695      -9.00000000       3131.70435      -1.31244087    
   3.53553391       3.53553391      -8.00000000       4450.08643      -1.36939096    
   3.53553391       3.53553391      -7.00000000       4450.08643      -1.36939096    
   3.93283010       3.01776695      -7.00000000       4450.08643      -1.36939096    
   3.93283010       3.01776695      -8.00000000       4450.08643      -1.36939096    
   3.53553391       3.53553391      -7.00000000       6086.13965      -1.41005313    
   3.53553391       3.53553391      -6.00000000       6086.13965      -1.41005313    
   3.93283010       3.01776695      -6.00000000       6086.13965      -1.41005313    
   3.93283010       3.01776695      -7.00000000       6086.13965      -1.41005313    
   3.53553391       3.53553391      -6.00000000       7897.95215      -1.43663561    
   3.53553391       3.53553391      -5.00000000       7897.95215      -1.43663561    
   3.93283010       3.01776695      -5.00000000       7897.95215      -1.43663561    
   3.93283010       3.01776695      -6.00000000       7897.95215      -1.43663561    
   3.53553391       3.53553391      -5.00000000       9803.21387      -1.45430112    
   3.53553391       3.53553391      -4.00000000       9803.21387      -1.45430112    
   3.93283010       3.01776695      -4.00000000       9803.21387      -1.45430112    
   3.93283010       3.01776695      -5.00000000       9803.21387      -1.45430112    
   3.53553391       3.53553391      -4.00000000       11734.9502      -1.46625257    
   3.53553391       3.53553391      -3.00000000       11734.9502      -1.46625257    
   3.93283010       3.01776695      -3.00000000       11734.9502      -1.46625257    
   3.93283010       3.01776695      -4.00000000       11734.9502      -1.46625257    
   3.53553391       3.53553391      -3.00000000       13630.3506      -1.47434473    
   3.53553391       3.53553391      -2.00000000       13630.3506      -1.47434473    
   3.93283010       3.01776695      -2.00000000       13630.3506      -1.47434473    
   3.93283010       3.01776695      -3.00000000       13630.3506      -1.47434473    
   3.53553391       3.53553391      -2.00000000       15424.5293      -1.47963393    
   3.53553391       3.53553391      -1.00000000       15424.5293      -1.47963393    
   3.93283010       3.01776695      -1.00000000       15424.5293      -1.47963393    
   3.93283010       3.01776695      -2.00000000       15424.5293      -1.47963393    
   3.53553391       3.53553391      -1.00000000       16996.4980      -1.48246193    
   3.53553391       3.53553391       0.00000000       16996.4980      -1.48246193    
   3.93283010       3.01776695       0.00000000       16996.4980      -1.48246193    
   3.93283010       3.01776695      -1.00000000       16996.4980      -1.48246193    
   3.93283010       3.01776695      -10.0000000       2814.93115      -1.29863489    
   3.93283010       3.01776695      -9.00000000       2814.93115      -1.29863489    
   4.33012676       2.50000000      -9.00000000       2814.93115      -1.29863489    
   4.33012676       2.50000000      -10.0000000       2814.93115      -1.29863489    
   3.93283010       3.01776695      -9.00000000       3462.67847      -1.31355500    
   3.93283010       3.01776695      -8.00000000       3462.67847      -1.31355500    
   4.33012676       2.50000000      -8.00000000       3462.67847      -1.31355500    
   4.33012676       2.50000000      -9.00000000       3462.67847      -1.31355500    
   3.93283010       3.01776695      -8.00000000       4898.95850      -1.36936581    
   3.93283010       3.01776695      -7.00000000       4898.95850      -1.36936581    
   4.33012676       2.50000000      -7.00000000       4898.95850      -1.36936581    
   4.33012676       2.50000000      -8.00000000       4898.95850      -1.36936581    
   3.93283010       3.01776695      -7.00000000       6684.57031      -1.40965974    
   3.93283010       3.01776695      -6.00000000       6684.57031      -1.40965974    
   4.33012676       2.50000000      -6.00000000       6684.57031      -1.40965974    
   4.33012676       2.50000000      -7.00000000       6684.57031      -1.40965974    
   3.93283010       3.01776695      -6.00000000       8663.41504      -1.43613529    
   3.93283010       3.01776695      -5.00000000       8663.41504      -1.43613529    
   4.33012676       2.50000000      -5.00000000       8663.41504      -1.43613529    
   4.33012676       2.50000000      -6.00000000       8663.41504      -1.43613529    
   3.93283010       3.01776695      -5.00000000       10745.1504      -1.45377839    
   3.93283010       3.01776695      -4.00000000       10745.1504      -1.45377839    
   4.33012676       2.50000000      -4.00000000       10745.1504      -1.45377839    
   4.33012676       2.50000000      -5.00000000       10745.1504      -1.45377839    
   3.93283010       3.01776695      -4.00000000       12855.6943      -1.46572888    
   3.93283010       3.01776695      -3.00000000       12855.6943      -1.46572888    
   4.33012676       2.50000000      -3.00000000       12855.6943      -1.46572888    
   4.33012676       2.50000000      -4.00000000       12855.6943      -1.46572888    
   3.93283010       3.01776695      -3.00000000       14926.4902      -1.47382474    
   3.93283010       3.01776695      -2.00000000       14926.4902      -1.47382474    
   4.33012676       2.50000000      -2.00000000       14926.4902      -1.47382474    
   4.33012676       2.50000000      -3.00000000       14926.4902      -1.47382474    
   3.93283010       3.01776695      -2.00000000       16885.8164      -1.47911322    
   3.93283010       3.01776695      -1.00000000       16885.8164      -1.47911322    
   4.33012676       2.50000000      -1.00000000       16885.8164      -1.47911322    
   4.33012676       2.50000000      -2.00000000       16885.8164      -1.47911322    
   3.93283010       3.01776695      -1.00000000       18602.0781      -1.48193252    
   3.93283010       3.01776695       0.00000000       18602.0781      -1.48193252    
   4.33012676       2.50000000       0.00000000       18602.0781      -1.48193252    
   4.33012676       2.50000000      -1.00000000       18602.0781      -1.48193252    
   2.50000000       4.33012676      -10.0000000       1867.34338      -1.29494989    
   2.50000000       4.33012676      -9.00000000       1867.34338      -1.29494989    
   3.01776695       3.93283010      -9.00000000       1867.34338      -1.29494989    
   3.01776695       3.93283010      -10.0000000       1867.34338      -1.29494989    
   2.50000000       4.33012676      -9.00000000       2314.35718      -1.31199384    
   2.50000000       4.33012676      -8.00000000       2314.35718      -1.31199384    
   3.01776695       3.93283010      -8.00000000       2314.35718      -1.31199384    
   3.01776695       3.93283010      -9.00000000       2314.35718      -1.31199384    
   2.50000000       4.33012676      -8.00000000       3294.39868      -1.36939979    
   2.50000000       4.33012676      -7.00000000       3294.39868      -1.36939979    
   3.01776695       3.93283010      -7.00000000       3294.39868      -1.36939979    
   3.01776695       3.93283010      -8.00000000       3294.39868      -1.36939979    
   2.50000000       4.33012676      -7.00000000       4509.70557      -1.41020775    
   2.50000000       4.33012676      -6.00000000       4509.70557      -1.41020775    
   3.01776695       3.93283010      -6.00000000       4509.70557      -1.41020775    
   3.01776695       3.93283010      -7.00000000       4509.70557      -1.41020775    
   2.50000000       4.33012676      -6.00000000       5855.21289      -1.43683422    
   2.50000000       4.33012676      -5.00000000       5855.21289      -1.43683422    
   3.01776695       3.93283010      -5.00000000       5855.21289      -1.43683422    
   3.01776695       3.93283010      -6.00000000       5855.21289      -1.43683422    
   2.50000000       4.33012676      -5.00000000       7269.88037      -1.45450759    
   2.50000000       4.33012676      -4.00000000       7269.88037      -1.45450759    
   3.01776695       3.93283010      -4.00000000       7269.88037      -1.45450759    
   3.01776695       3.93283010      -5.00000000       7269.88037      -1.45450759    
   2.50000000       4.33012676      -4.00000000       8704.24707      -1.46645975    
   2.50000000       4.33012676      -3.00000000       8704.24707      -1.46645975    
   3.01776695       3.93283010      -3.00000000       8704.24707      -1.46645975    
   3.01776695       3.93283010      -4.00000000       8704.24707      -1.46645975    
   2.50000000       4.33012676      -3.00000000       10111.6328      -1.47455049    
   2.50000000       4.33012676      -2.00000000       10111.6328      -1.47455049    
   3.01776695       3.93283010      -2.00000000       10111.6328      -1.47455049    
   3.01776695       3.93283010      -3.00000000       10111.6328      -1.47455049    
   2.50000000       4.33012676      -2.00000000       11444.0947      -1.47984016    
   2.50000000       4.33012676      -1.00000000       11444.0947      -1.47984016    
   3.01776695       3.93283010      -1.00000000       11444.0947      -1.47984016    
   3.01776695       3.93283010      -2.00000000       11444.0947      -1.47984016    
   2.50000000       4.33012676      -1.00000000       12611.6670      -1.48267138    
   2.50000000       4.33012676       0.00000000       12611.6670      -1.48267138    
   3.01776695       3.93283010       0.00000000       12611.6670      -1.48267138    
   3.01776695       3.93283010      -1.00000000       12611.6670      -1.48267138    
   3.01776695       3.93283010      -10.0000000       2235.71362      -1.29943049    
   3.01776695       3.93283010      -9.00000000       2235.71362      -1.29943049    
   3.53553391       3.53553391      -9.00000000       2235.71362      -1.29943049    
   3.53553391       3.53553391      -10.0000000       2235.71362      -1.29943049    
   3.01776695       3.93283010      -9.00000000       2745.69141      -1.31389534    
   3.01776695       3.93283010      -8.00000000       2745.69141      -1.31389534    
   3.53553391       3.53553391      -8.00000000       2745.69141      -1.31389534    
   3.53553391       3.53553391      -9.00000000       2745.69141      -1.31389534    
   3.01776695       3.93283010      -8.00000000       3879.37817      -1.36935842    
   3.01776695       3.93283010      -7.00000000       3879.37817      -1.36935842    
   3.53553391       3.53553391      -7.00000000       3879.37817      -1.36935842    
   3.53553391       3.53553391      -8.00000000       3879.37817      -1.36935842    
   3.01776695       3.93283010      -7.00000000       5289.60449      -1.40953791    
   3.01776695       3.93283010      -6.00000000       5289.60449      -1.40953791    
   3.53553391       3.53553391      -6.00000000       5289.60449      -1.40953791    
   3.53553391       3.53553391      -7.00000000       5289.60449      -1.40953791    
   3.01776695       3.93283010      -6.00000000       6852.77832      -1.43598044    
   3.01776695       3.93283010      -5.00000000       6852.77832      -1.43598044    
   3.53553391       3.53553391      -5.00000000       6852.77832      -1.43598044    
   3.53553391       3.53553391      -6.00000000       6852.77832      -1.43598044    
   3.01776695       3.93283010      -5.00000000       8497.43457      -1.45361650    
   3.01776695       3.93283010      -4.00000000       8497.43457      -1.45361650    
   3.53553391       3.53553391      -4.00000000       8497.43457      -1.45361650    
   3.53553391       3.53553391      -5.00000000       8497.43457      -1.45361650    
   3.01776695       3.93283010      -4.00000000       10164.8125      -1.46556628    
   3.01776695       3.93283010      -3.00000000       10164.8125      -1.46556628    
   3.53553391       3.53553391      -3.00000000       10164.8125      -1.46556628    
   3.53553391       3.53553391      -4.00000000       10164.8125      -1.46556628    
   3.01776695       3.93283010      -3.00000000       11800.7959      -1.47366405    
   3.01776695       3.93283010      -2.00000000       11800.7959      -1.47366405    
   3.53553391       3.53553391      -2.00000000       11800.7959      -1.47366405    
   3.53553391       3.53553391      -3.00000000       11800.7959      -1.47366405    
   3.01776695       3.93283010      -2.00000000       13348.5010      -1.47895205    
   3.01776695       3.93283010      -1.00000000       13348.5010      -1.47895205    
   3.53553391       3.53553391      -1.00000000       13348.5010      -1.47895205    
   3.53553391       3.53553391      -2.00000000       13348.5010      -1.47895205    
   3.01776695       3.93283010      -1.00000000       14704.0811      -1.48176837    
   3.01776695       3.93283010       0.00000000       14704.0811      -1.48176837    
   3.53553391       3.53553391       0.00000000       14704.0811      -1.48176837    
   3.53553391       3.53553391      -1.00000000       14704.0811      -1.48176837    
   1.29409504       4.82962894      -10.0000000       1075.16565      -1.29245579    
   1.29409504       4.82962894      -9.00000000       1075.16565      -1.29245579    
   1.89704800       4.57987785      -9.00000000       1075.16565      -1.29245579    
   1.89704800       4.57987785      -10.0000000       1075.16565      -1.29245579    
   1.29409504       4.82962894      -9.00000000       1339.29431      -1.31094992    
   1.29409504       4.82962894      -8.00000000       1339.29431      -1.31094992    
   1.89704800       4.57987785      -8.00000000       1339.29431      -1.31094992    
   1.89704800       4.57987785      -9.00000000       1339.29431      -1.31094992    
   1.29409504       4.82962894      -8.00000000       1914.20056      -1.36942351    
   1.29409504       4.82962894      -7.00000000       1914.20056      -1.36942351    
   1.89704800       4.57987785      -7.00000000       1914.20056      -1.36942351    
   1.89704800       4.57987785      -8.00000000       1914.20056      -1.36942351    
   1.29409504       4.82962894      -7.00000000       2625.94995      -1.41056883    
   1.29409504       4.82962894      -6.00000000       2625.94995      -1.41056883    
   1.89704800       4.57987785      -6.00000000       2625.94995      -1.41056883    
   1.89704800       4.57987785      -7.00000000       2625.94995      -1.41056883    
   1.29409504       4.82962894      -6.00000000       3413.43970      -1.43729258    
   1.29409504       4.82962894      -5.00000000       3413.43970      -1.43729258    
   1.89704800       4.57987785      -5.00000000       3413.43970      -1.43729258    
   1.89704800       4.57987785      -6.00000000       3413.43970      -1.43729258    
   1.29409504       4.82962894      -5.00000000       4241.11768      -1.45498574    
   1.29409504       4.82962894      -4.00000000       4241.11768      -1.45498574    
   1.89704800       4.57987785      -4.00000000       4241.11768      -1.45498574    
   1.89704800       4.57987785      -5.00000000       4241.11768      -1.45498574    
   1.29409504       4.82962894      -4.00000000       5080.35840      -1.46693838    
   1.29409504       4.82962894      -3.00000000       5080.35840      -1.46693838    
   1.89704800       4.57987785      -3.00000000       5080.35840      -1.46693838    