 VARIABLES="X" "Y" "Z" "abs(p) (Pa)" "angle(p) (rad)"
ZONE N=   1080,E =     600, F=FEPOINT, ET=QUADRILATERAL
   4.82962894       1.29409504      -10.0000000       908.832642       1.96204019    
   4.82962894       1.29409504      -9.00000000       908.832642       1.96204019    
   4.91481400      0.647047520      -9.00000000       908.832642       1.96204019    
   4.91481400      0.647047520      -10.0000000       908.832642       1.96204019    
   4.82962894       1.29409504      -9.00000000       641.316895       2.21720672    
   4.82962894       1.29409504      -8.00000000       641.316895       2.21720672    
   4.91481400      0.647047520      -8.00000000       641.316895       2.21720672    
   4.91481400      0.647047520      -9.00000000       641.316895       2.21720672    
   4.82962894       1.29409504      -8.00000000       551.532043       2.44983196    
   4.82962894       1.29409504      -7.00000000       551.532043       2.44983196    
   4.91481400      0.647047520      -7.00000000       551.532043       2.44983196    
   4.91481400      0.647047520      -8.00000000       551.532043       2.44983196    
   4.82962894       1.29409504      -7.00000000       526.456238       2.65382767    
   4.82962894       1.29409504      -6.00000000       526.456238       2.65382767    
   4.91481400      0.647047520      -6.00000000       526.456238       2.65382767    
   4.91481400      0.647047520      -7.00000000       526.456238       2.65382767    
   4.82962894       1.29409504      -6.00000000       536.233704       2.81638765    
   4.82962894       1.29409504      -5.00000000       536.233704       2.81638765    
   4.91481400      0.647047520      -5.00000000       536.233704       2.81638765    
   4.91481400      0.647047520      -6.00000000       536.233704       2.81638765    
   4.82962894       1.29409504      -5.00000000       566.395752       2.93645954    
   4.82962894       1.29409504      -4.00000000       566.395752       2.93645954    
   4.91481400      0.647047520      -4.00000000       566.395752       2.93645954    
   4.91481400      0.647047520      -5.00000000       566.395752       2.93645954    
   4.82962894       1.29409504      -4.00000000       609.237122       3.01975679    
   4.82962894       1.29409504      -3.00000000       609.237122       3.01975679    
   4.91481400      0.647047520      -3.00000000       609.237122       3.01975679    
   4.91481400      0.647047520      -4.00000000       609.237122       3.01975679    
   4.82962894       1.29409504      -3.00000000       660.572388       3.07533669    
   4.82962894       1.29409504      -2.00000000       660.572388       3.07533669    
   4.91481400      0.647047520      -2.00000000       660.572388       3.07533669    
   4.91481400      0.647047520      -3.00000000       660.572388       3.07533669    
   4.82962894       1.29409504      -2.00000000       718.543518       3.10835409    
   4.82962894       1.29409504      -1.00000000       718.543518       3.10835409    
   4.91481400      0.647047520      -1.00000000       718.543518       3.10835409    
   4.91481400      0.647047520      -2.00000000       718.543518       3.10835409    
   4.82962894       1.29409504      -1.00000000       782.394348       3.12280321    
   4.82962894       1.29409504       0.00000000       782.394348       3.12280321    
   4.91481400      0.647047520       0.00000000       782.394348       3.12280321    
   4.91481400      0.647047520      -1.00000000       782.394348       3.12280321    
   4.91481400      0.647047520      -10.0000000       908.832886       1.96204007    
   4.91481400      0.647047520      -9.00000000       908.832886       1.96204007    
   5.00000000       0.00000000      -9.00000000       908.832886       1.96204007    
   5.00000000       0.00000000      -10.0000000       908.832886       1.96204007    
   4.91481400      0.647047520      -9.00000000       641.316406       2.21720695    
   4.91481400      0.647047520      -8.00000000       641.316406       2.21720695    
   5.00000000       0.00000000      -8.00000000       641.316406       2.21720695    
   5.00000000       0.00000000      -9.00000000       641.316406       2.21720695    
   4.91481400      0.647047520      -8.00000000       551.532593       2.44983053    
   4.91481400      0.647047520      -7.00000000       551.532593       2.44983053    
   5.00000000       0.00000000      -7.00000000       551.532593       2.44983053    
   5.00000000       0.00000000      -8.00000000       551.532593       2.44983053    
   4.91481400      0.647047520      -7.00000000       526.456116       2.65382838    
   4.91481400      0.647047520      -6.00000000       526.456116       2.65382838    
   5.00000000       0.00000000      -6.00000000       526.456116       2.65382838    
   5.00000000       0.00000000      -7.00000000       526.456116       2.65382838    
   4.91481400      0.647047520      -6.00000000       536.233582       2.81638765    
   4.91481400      0.647047520      -5.00000000       536.233582       2.81638765    
   5.00000000       0.00000000      -5.00000000       536.233582       2.81638765    
   5.00000000       0.00000000      -6.00000000       536.233582       2.81638765    
   4.91481400      0.647047520      -5.00000000       566.395813       2.93645930    
   4.91481400      0.647047520      -4.00000000       566.395813       2.93645930    
   5.00000000       0.00000000      -4.00000000       566.395813       2.93645930    
   5.00000000       0.00000000      -5.00000000       566.395813       2.93645930    
   4.91481400      0.647047520      -4.00000000       609.237427       3.01975656    
   4.91481400      0.647047520      -3.00000000       609.237427       3.01975656    
   5.00000000       0.00000000      -3.00000000       609.237427       3.01975656    
   5.00000000       0.00000000      -4.00000000       609.237427       3.01975656    
   4.91481400      0.647047520      -3.00000000       660.572327       3.07533693    
   4.91481400      0.647047520      -2.00000000       660.572327       3.07533693    
   5.00000000       0.00000000      -2.00000000       660.572327       3.07533693    
   5.00000000       0.00000000      -3.00000000       660.572327       3.07533693    
   4.91481400      0.647047520      -2.00000000       718.542908       3.10835385    
   4.91481400      0.647047520      -1.00000000       718.542908       3.10835385    
   5.00000000       0.00000000      -1.00000000       718.542908       3.10835385    
   5.00000000       0.00000000      -2.00000000       718.542908       3.10835385    
   4.91481400      0.647047520      -1.00000000       782.394104       3.12280345    
   4.91481400      0.647047520       0.00000000       782.394104       3.12280345    
   5.00000000       0.00000000       0.00000000       782.394104       3.12280345    
   5.00000000       0.00000000      -1.00000000       782.394104       3.12280345    
   4.33012676       2.50000000      -10.0000000       908.832764       1.96204007    
   4.33012676       2.50000000      -9.00000000       908.832764       1.96204007    
   4.57987785       1.89704800      -9.00000000       908.832764       1.96204007    
   4.57987785       1.89704800      -10.0000000       908.832764       1.96204007    
   4.33012676       2.50000000      -9.00000000       641.315918       2.21720743    
   4.33012676       2.50000000      -8.00000000       641.315918       2.21720743    
   4.57987785       1.89704800      -8.00000000       641.315918       2.21720743    
   4.57987785       1.89704800      -9.00000000       641.315918       2.21720743    
   4.33012676       2.50000000      -8.00000000       551.532104       2.44983101    
   4.33012676       2.50000000      -7.00000000       551.532104       2.44983101    
   4.57987785       1.89704800      -7.00000000       551.532104       2.44983101    
   4.57987785       1.89704800      -8.00000000       551.532104       2.44983101    
   4.33012676       2.50000000      -7.00000000       526.456299       2.65382767    
   4.33012676       2.50000000      -6.00000000       526.456299       2.65382767    
   4.57987785       1.89704800      -6.00000000       526.456299       2.65382767    
   4.57987785       1.89704800      -7.00000000       526.456299       2.65382767    
   4.33012676       2.50000000      -6.00000000       536.234070       2.81638765    
   4.33012676       2.50000000      -5.00000000       536.234070       2.81638765    
   4.57987785       1.89704800      -5.00000000       536.234070       2.81638765    
   4.57987785       1.89704800      -6.00000000       536.234070       2.81638765    
   4.33012676       2.50000000      -5.00000000       566.395996       2.93645954    
   4.33012676       2.50000000      -4.00000000       566.395996       2.93645954    
   4.57987785       1.89704800      -4.00000000       566.395996       2.93645954    
   4.57987785       1.89704800      -5.00000000       566.395996       2.93645954    
   4.33012676       2.50000000      -4.00000000       609.237122       3.01975679    
   4.33012676       2.50000000      -3.00000000       609.237122       3.01975679    
   4.57987785       1.89704800      -3.00000000       609.237122       3.01975679    
   4.57987785       1.89704800      -4.00000000       609.237122       3.01975679    
   4.33012676       2.50000000      -3.00000000       660.572571       3.07533717    
   4.33012676       2.50000000      -2.00000000       660.572571       3.07533717    
   4.57987785       1.89704800      -2.00000000       660.572571       3.07533717    
   4.57987785       1.89704800      -3.00000000       660.572571       3.07533717    
   4.33012676       2.50000000      -2.00000000       718.543518       3.10835409    
   4.33012676       2.50000000      -1.00000000       718.543518       3.10835409    
   4.57987785       1.89704800      -1.00000000       718.543518       3.10835409    
   4.57987785       1.89704800      -2.00000000       718.543518       3.10835409    
   4.33012676       2.50000000      -1.00000000       782.394714       3.12280369    
   4.33012676       2.50000000       0.00000000       782.394714       3.12280369    
   4.57987785       1.89704800       0.00000000       782.394714       3.12280369    
   4.57987785       1.89704800      -1.00000000       782.394714       3.12280369    
   4.57987785       1.89704800      -10.0000000       908.832581       1.96204090    
   4.57987785       1.89704800      -9.00000000       908.832581       1.96204090    
   4.82962894       1.29409504      -9.00000000       908.832581       1.96204090    
   4.82962894       1.29409504      -10.0000000       908.832581       1.96204090    
   4.57987785       1.89704800      -9.00000000       641.316284       2.21720695    
   4.57987785       1.89704800      -8.00000000       641.316284       2.21720695    
   4.82962894       1.29409504      -8.00000000       641.316284       2.21720695    
   4.82962894       1.29409504      -9.00000000       641.316284       2.21720695    
   4.57987785       1.89704800      -8.00000000       551.532776       2.44983029    
   4.57987785       1.89704800      -7.00000000       551.532776       2.44983029    
   4.82962894       1.29409504      -7.00000000       551.532776       2.44983029    
   4.82962894       1.29409504      -8.00000000       551.532776       2.44983029    
   4.57987785       1.89704800      -7.00000000       526.456421       2.65382767    
   4.57987785       1.89704800      -6.00000000       526.456421       2.65382767    
   4.82962894       1.29409504      -6.00000000       526.456421       2.65382767    
   4.82962894       1.29409504      -7.00000000       526.456421       2.65382767    
   4.57987785       1.89704800      -6.00000000       536.233887       2.81638813    
   4.57987785       1.89704800      -5.00000000       536.233887       2.81638813    
   4.82962894       1.29409504      -5.00000000       536.233887       2.81638813    
   4.82962894       1.29409504      -6.00000000       536.233887       2.81638813    
   4.57987785       1.89704800      -5.00000000       566.395691       2.93645906    
   4.57987785       1.89704800      -4.00000000       566.395691       2.93645906    
   4.82962894       1.29409504      -4.00000000       566.395691       2.93645906    
   4.82962894       1.29409504      -5.00000000       566.395691       2.93645906    
   4.57987785       1.89704800      -4.00000000       609.237488       3.01975679    
   4.57987785       1.89704800      -3.00000000       609.237488       3.01975679    
   4.82962894       1.29409504      -3.00000000       609.237488       3.01975679    
   4.82962894       1.29409504      -4.00000000       609.237488       3.01975679    
   4.57987785       1.89704800      -3.00000000       660.572571       3.07533693    
   4.57987785       1.89704800      -2.00000000       660.572571       3.07533693    
   4.82962894       1.29409504      -2.00000000       660.572571       3.07533693    
   4.82962894       1.29409504      -3.00000000       660.572571       3.07533693    
   4.57987785       1.89704800      -2.00000000       718.543518       3.10835361    
   4.57987785       1.89704800      -1.00000000       718.543518       3.10835361    
   4.82962894       1.29409504      -1.00000000       718.543518       3.10835361    
   4.82962894       1.29409504      -2.00000000       718.543518       3.10835361    
   4.57987785       1.89704800      -1.00000000       782.393677       3.12280345    
   4.57987785       1.89704800       0.00000000       782.393677       3.12280345    
   4.82962894       1.29409504       0.00000000       782.393677       3.12280345    
   4.82962894       1.29409504      -1.00000000       782.393677       3.12280345    
   3.53553391       3.53553391      -10.0000000       908.832825       1.96204042    
   3.53553391       3.53553391      -9.00000000       908.832825       1.96204042    
   3.93283010       3.01776695      -9.00000000       908.832825       1.96204042    
   3.93283010       3.01776695      -10.0000000       908.832825       1.96204042    
   3.53553391       3.53553391      -9.00000000       641.315857       2.21720815    
   3.53553391       3.53553391      -8.00000000       641.315857       2.21720815    
   3.93283010       3.01776695      -8.00000000       641.315857       2.21720815    
   3.93283010       3.01776695      -9.00000000       641.315857       2.21720815    
   3.53553391       3.53553391      -8.00000000       551.532593       2.44983053    
   3.53553391       3.53553391      -7.00000000       551.532593       2.44983053    
   3.93283010       3.01776695      -7.00000000       551.532593       2.44983053    
   3.93283010       3.01776695      -8.00000000       551.532593       2.44983053    
   3.53553391       3.53553391      -7.00000000       526.455872       2.65382767    
   3.53553391       3.53553391      -6.00000000       526.455872       2.65382767    
   3.93283010       3.01776695      -6.00000000       526.455872       2.65382767    
   3.93283010       3.01776695      -7.00000000       526.455872       2.65382767    
   3.53553391       3.53553391      -6.00000000       536.233887       2.81638765    
   3.53553391       3.53553391      -5.00000000       536.233887       2.81638765    
   3.93283010       3.01776695      -5.00000000       536.233887       2.81638765    
   3.93283010       3.01776695      -6.00000000       536.233887       2.81638765    
   3.53553391       3.53553391      -5.00000000       566.395691       2.93645906    
   3.53553391       3.53553391      -4.00000000       566.395691       2.93645906    
   3.93283010       3.01776695      -4.00000000       566.395691       2.93645906    
   3.93283010       3.01776695      -5.00000000       566.395691       2.93645906    
   3.53553391       3.53553391      -4.00000000       609.237244       3.01975656    
   3.53553391       3.53553391      -3.00000000       609.237244       3.01975656    
   3.93283010       3.01776695      -3.00000000       609.237244       3.01975656    
   3.93283010       3.01776695      -4.00000000       609.237244       3.01975656    
   3.53553391       3.53553391      -3.00000000       660.572815       3.07533693    
   3.53553391       3.53553391      -2.00000000       660.572815       3.07533693    
   3.93283010       3.01776695      -2.00000000       660.572815       3.07533693    
   3.93283010       3.01776695      -3.00000000       660.572815       3.07533693    
   3.53553391       3.53553391      -2.00000000       718.543335       3.10835409    
   3.53553391       3.53553391      -1.00000000       718.543335       3.10835409    
   3.93283010       3.01776695      -1.00000000       718.543335       3.10835409    
   3.93283010       3.01776695      -2.00000000       718.543335       3.10835409    
   3.53553391       3.53553391      -1.00000000       782.394104       3.12280369    
   3.53553391       3.53553391       0.00000000       782.394104       3.12280369    
   3.93283010       3.01776695       0.00000000       782.394104       3.12280369    
   3.93283010       3.01776695      -1.00000000       782.394104       3.12280369    
   3.93283010       3.01776695      -10.0000000       908.832764       1.96204054    
   3.93283010       3.01776695      -9.00000000       908.832764       1.96204054    
   4.33012676       2.50000000      -9.00000000       908.832764       1.96204054    
   4.33012676       2.50000000      -10.0000000       908.832764       1.96204054    
   3.93283010       3.01776695      -9.00000000       641.315857       2.21720719    
   3.93283010       3.01776695      -8.00000000       641.315857       2.21720719    
   4.33012676       2.50000000      -8.00000000       641.315857       2.21720719    
   4.33012676       2.50000000      -9.00000000       641.315857       2.21720719    
   3.93283010       3.01776695      -8.00000000       551.532654       2.44983149    
   3.93283010       3.01776695      -7.00000000       551.532654       2.44983149    
   4.33012676       2.50000000      -7.00000000       551.532654       2.44983149    
   4.33012676       2.50000000      -8.00000000       551.532654       2.44983149    
   3.93283010       3.01776695      -7.00000000       526.455994       2.65382767    
   3.93283010       3.01776695      -6.00000000       526.455994       2.65382767    
   4.33012676       2.50000000      -6.00000000       526.455994       2.65382767    
   4.33012676       2.50000000      -7.00000000       526.455994       2.65382767    
   3.93283010       3.01776695      -6.00000000       536.233459       2.81638765    
   3.93283010       3.01776695      -5.00000000       536.233459       2.81638765    
   4.33012676       2.50000000      -5.00000000       536.233459       2.81638765    
   4.33012676       2.50000000      -6.00000000       536.233459       2.81638765    
   3.93283010       3.01776695      -5.00000000       566.395813       2.93645835    
   3.93283010       3.01776695      -4.00000000       566.395813       2.93645835    
   4.33012676       2.50000000      -4.00000000       566.395813       2.93645835    
   4.33012676       2.50000000      -5.00000000       566.395813       2.93645835    
   3.93283010       3.01776695      -4.00000000       609.237427       3.01975632    
   3.93283010       3.01776695      -3.00000000       609.237427       3.01975632    
   4.33012676       2.50000000      -3.00000000       609.237427       3.01975632    
   4.33012676       2.50000000      -4.00000000       609.237427       3.01975632    
   3.93283010       3.01776695      -3.00000000       660.572083       3.07533693    
   3.93283010       3.01776695      -2.00000000       660.572083       3.07533693    
   4.33012676       2.50000000      -2.00000000       660.572083       3.07533693    
   4.33012676       2.50000000      -3.00000000       660.572083       3.07533693    
   3.93283010       3.01776695      -2.00000000       718.543396       3.10835361    
   3.93283010       3.01776695      -1.00000000       718.543396       3.10835361    
   4.33012676       2.50000000      -1.00000000       718.543396       3.10835361    
   4.33012676       2.50000000      -2.00000000       718.543396       3.10835361    
   3.93283010       3.01776695      -1.00000000       782.394165       3.12280369    
   3.93283010       3.01776695       0.00000000       782.394165       3.12280369    
   4.33012676       2.50000000       0.00000000       782.394165       3.12280369    
   4.33012676       2.50000000      -1.00000000       782.394165       3.12280369    
   2.50000000       4.33012676      -10.0000000       908.832520       1.96204090    
   2.50000000       4.33012676      -9.00000000       908.832520       1.96204090    
   3.01776695       3.93283010      -9.00000000       908.832520       1.96204090    
   3.01776695       3.93283010      -10.0000000       908.832520       1.96204090    
   2.50000000       4.33012676      -9.00000000       641.316101       2.21720767    
   2.50000000       4.33012676      -8.00000000       641.316101       2.21720767    
   3.01776695       3.93283010      -8.00000000       641.316101       2.21720767    
   3.01776695       3.93283010      -9.00000000       641.316101       2.21720767    
   2.50000000       4.33012676      -8.00000000       551.532593       2.44983053    
   2.50000000       4.33012676      -7.00000000       551.532593       2.44983053    
   3.01776695       3.93283010      -7.00000000       551.532593       2.44983053    
   3.01776695       3.93283010      -8.00000000       551.532593       2.44983053    
   2.50000000       4.33012676      -7.00000000       526.455933       2.65382767    
   2.50000000       4.33012676      -6.00000000       526.455933       2.65382767    
   3.01776695       3.93283010      -6.00000000       526.455933       2.65382767    
   3.01776695       3.93283010      -7.00000000       526.455933       2.65382767    
   2.50000000       4.33012676      -6.00000000       536.233826       2.81638741    
   2.50000000       4.33012676      -5.00000000       536.233826       2.81638741    
   3.01776695       3.93283010      -5.00000000       536.233826       2.81638741    
   3.01776695       3.93283010      -6.00000000       536.233826       2.81638741    
   2.50000000       4.33012676      -5.00000000       566.395569       2.93645859    
   2.50000000       4.33012676      -4.00000000       566.395569       2.93645859    
   3.01776695       3.93283010      -4.00000000       566.395569       2.93645859    
   3.01776695       3.93283010      -5.00000000       566.395569       2.93645859    
   2.50000000       4.33012676      -4.00000000       609.237244       3.01975656    
   2.50000000       4.33012676      -3.00000000       609.237244       3.01975656    
   3.01776695       3.93283010      -3.00000000       609.237244       3.01975656    
   3.01776695       3.93283010      -4.00000000       609.237244       3.01975656    
   2.50000000       4.33012676      -3.00000000       660.572876       3.07533693    
   2.50000000       4.33012676      -2.00000000       660.572876       3.07533693    
   3.01776695       3.93283010      -2.00000000       660.572876       3.07533693    
   3.01776695       3.93283010      -3.00000000       660.572876       3.07533693    
   2.50000000       4.33012676      -2.00000000       718.543213       3.10835433    
   2.50000000       4.33012676      -1.00000000       718.543213       3.10835433    
   3.01776695       3.93283010      -1.00000000       718.543213       3.10835433    
   3.01776695       3.93283010      -2.00000000       718.543213       3.10835433    
   2.50000000       4.33012676      -1.00000000       782.393860       3.12280369    
   2.50000000       4.33012676       0.00000000       782.393860       3.12280369    
   3.01776695       3.93283010       0.00000000       782.393860       3.12280369    
   3.01776695       3.93283010      -1.00000000       782.393860       3.12280369    
   3.01776695       3.93283010      -10.0000000       908.832458       1.96204090    
   3.01776695       3.93283010      -9.00000000       908.832458       1.96204090    
   3.53553391       3.53553391      -9.00000000       908.832458       1.96204090    
   3.53553391       3.53553391      -10.0000000       908.832458       1.96204090    
   3.01776695       3.93283010      -9.00000000       641.316711       2.21720695    
   3.01776695       3.93283010      -8.00000000       641.316711       2.21720695    
   3.53553391       3.53553391      -8.00000000       641.316711       2.21720695    
   3.53553391       3.53553391      -9.00000000       641.316711       2.21720695    
   3.01776695       3.93283010      -8.00000000       551.532715       2.44983125    
   3.01776695       3.93283010      -7.00000000       551.532715       2.44983125    
   3.53553391       3.53553391      -7.00000000       551.532715       2.44983125    
   3.53553391       3.53553391      -8.00000000       551.532715       2.44983125    
   3.01776695       3.93283010      -7.00000000       526.456055       2.65382767    
   3.01776695       3.93283010      -6.00000000       526.456055       2.65382767    
   3.53553391       3.53553391      -6.00000000       526.456055       2.65382767    
   3.53553391       3.53553391      -7.00000000       526.456055       2.65382767    
   3.01776695       3.93283010      -6.00000000       536.233643       2.81638741    
   3.01776695       3.93283010      -5.00000000       536.233643       2.81638741    
   3.53553391       3.53553391      -5.00000000       536.233643       2.81638741    
   3.53553391       3.53553391      -6.00000000       536.233643       2.81638741    
   3.01776695       3.93283010      -5.00000000       566.396240       2.93645859    
   3.01776695       3.93283010      -4.00000000       566.396240       2.93645859    
   3.53553391       3.53553391      -4.00000000       566.396240       2.93645859    
   3.53553391       3.53553391      -5.00000000       566.396240       2.93645859    
   3.01776695       3.93283010      -4.00000000       609.237732       3.01975608    
   3.01776695       3.93283010      -3.00000000       609.237732       3.01975608    
   3.53553391       3.53553391      -3.00000000       609.237732       3.01975608    
   3.53553391       3.53553391      -4.00000000       609.237732       3.01975608    
   3.01776695       3.93283010      -3.00000000       660.572937       3.07533669    
   3.01776695       3.93283010      -2.00000000       660.572937       3.07533669    
   3.53553391       3.53553391      -2.00000000       660.572937       3.07533669    
   3.53553391       3.53553391      -3.00000000       660.572937       3.07533669    
   3.01776695       3.93283010      -2.00000000       718.543640       3.10835361    
   3.01776695       3.93283010      -1.00000000       718.543640       3.10835361    
   3.53553391       3.53553391      -1.00000000       718.543640       3.10835361    
   3.53553391       3.53553391      -2.00000000       718.543640       3.10835361    
   3.01776695       3.93283010      -1.00000000       782.393433       3.12280393    
   3.01776695       3.93283010       0.00000000       782.393433       3.12280393    
   3.53553391       3.53553391       0.00000000       782.393433       3.12280393    
   3.53553391       3.53553391      -1.00000000       782.393433       3.12280393    
   1.29409504       4.82962894      -10.0000000       908.832520       1.96204054    
   1.29409504       4.82962894      -9.00000000       908.832520       1.96204054    
   1.89704800       4.57987785      -9.00000000       908.832520       1.96204054    
   1.89704800       4.57987785      -10.0000000       908.832520       1.96204054    
   1.29409504       4.82962894      -9.00000000       641.315796       2.21720719    
   1.29409504       4.82962894      -8.00000000       641.315796       2.21720719    
   1.89704800       4.57987785      -8.00000000       641.315796       2.21720719    
   1.89704800       4.57987785      -9.00000000       641.315796       2.21720719    
   1.29409504       4.82962894      -8.00000000       551.532593       2.44983006    
   1.29409504       4.82962894      -7.00000000       551.532593       2.44983006    
   1.89704800       4.57987785      -7.00000000       551.532593       2.44983006    
   1.89704800       4.57987785      -8.00000000       551.532593       2.44983006    
   1.29409504       4.82962894      -7.00000000       526.455811       2.65382814    
   1.29409504       4.82962894      -6.00000000       526.455811       2.65382814    
   1.89704800       4.57987785      -6.00000000       526.455811       2.65382814    
   1.89704800       4.57987785      -7.00000000       526.455811       2.65382814    
   1.29409504       4.82962894      -6.00000000       536.233704       2.81638741    
   1.29409504       4.82962894      -5.00000000       536.233704       2.81638741    
   1.89704800       4.57987785      -5.00000000       536.233704       2.81638741    
   1.89704800       4.57987785      -6.00000000       536.233704       2.81638741    
   1.29409504       4.82962894      -5.00000000       566.395691       2.93645859    
   1.29409504       4.82962894      -4.00000000       566.395691       2.93645859    
   1.89704800       4.57987785      -4.00000000       566.395691       2.93645859    
   1.89704800       4.57987785      -5.00000000       566.395691       2.93645859    
   1.29409504       4.82962894      -4.00000000       609.237183       3.01975560    
   1.29409504       4.82962894      -3.00000000       609.237183       3.01975560    
   1.89704800       4.57987785      -3.00000000       609.237183       3.01975560    