 VARIABLES="X" "Y" "Z" "abs(p) (Pa)" "angle(p) (rad)"
ZONE N=   1080,E =     600, F=FEPOINT, ET=QUADRILATERAL
   4.82962894       1.29409504      -10.0000000       1319.77661       2.62302256    
   4.82962894       1.29409504      -9.00000000       1319.77661       2.62302256    
   4.91481400      0.647047520      -9.00000000       1319.77661       2.62302256    
   4.91481400      0.647047520      -10.0000000       1319.77661       2.62302256    
   4.82962894       1.29409504      -9.00000000       1622.30847       2.46763968    
   4.82962894       1.29409504      -8.00000000       1622.30847       2.46763968    
   4.91481400      0.647047520      -8.00000000       1622.30847       2.46763968    
   4.91481400      0.647047520      -9.00000000       1622.30847       2.46763968    
   4.82962894       1.29409504      -8.00000000       1898.67053       2.40432143    
   4.82962894       1.29409504      -7.00000000       1898.67053       2.40432143    
   4.91481400      0.647047520      -7.00000000       1898.67053       2.40432143    
   4.91481400      0.647047520      -8.00000000       1898.67053       2.40432143    
   4.82962894       1.29409504      -7.00000000       2172.39526       2.36959386    
   4.82962894       1.29409504      -6.00000000       2172.39526       2.36959386    
   4.91481400      0.647047520      -6.00000000       2172.39526       2.36959386    
   4.91481400      0.647047520      -7.00000000       2172.39526       2.36959386    
   4.82962894       1.29409504      -6.00000000       2454.24023       2.34864330    
   4.82962894       1.29409504      -5.00000000       2454.24023       2.34864330    
   4.91481400      0.647047520      -5.00000000       2454.24023       2.34864330    
   4.91481400      0.647047520      -6.00000000       2454.24023       2.34864330    
   4.82962894       1.29409504      -5.00000000       2751.34229       2.33549738    
   4.82962894       1.29409504      -4.00000000       2751.34229       2.33549738    
   4.91481400      0.647047520      -4.00000000       2751.34229       2.33549738    
   4.91481400      0.647047520      -5.00000000       2751.34229       2.33549738    
   4.82962894       1.29409504      -4.00000000       3068.71460       2.32706404    
   4.82962894       1.29409504      -3.00000000       3068.71460       2.32706404    
   4.91481400      0.647047520      -3.00000000       3068.71460       2.32706404    
   4.91481400      0.647047520      -4.00000000       3068.71460       2.32706404    
   4.82962894       1.29409504      -3.00000000       3410.06128       2.32187200    
   4.82962894       1.29409504      -2.00000000       3410.06128       2.32187200    
   4.91481400      0.647047520      -2.00000000       3410.06128       2.32187200    
   4.91481400      0.647047520      -3.00000000       3410.06128       2.32187200    
   4.82962894       1.29409504      -2.00000000       3779.17334       2.31912851    
   4.82962894       1.29409504      -1.00000000       3779.17334       2.31912851    
   4.91481400      0.647047520      -1.00000000       3779.17334       2.31912851    
   4.91481400      0.647047520      -2.00000000       3779.17334       2.31912851    
   4.82962894       1.29409504      -1.00000000       4177.04541       2.31823683    
   4.82962894       1.29409504       0.00000000       4177.04541       2.31823683    
   4.91481400      0.647047520       0.00000000       4177.04541       2.31823683    
   4.91481400      0.647047520      -1.00000000       4177.04541       2.31823683    
   4.91481400      0.647047520      -10.0000000       1342.99585       2.61861253    
   4.91481400      0.647047520      -9.00000000       1342.99585       2.61861253    
   5.00000000       0.00000000      -9.00000000       1342.99585       2.61861253    
   5.00000000       0.00000000      -10.0000000       1342.99585       2.61861253    
   4.91481400      0.647047520      -9.00000000       1654.29834       2.46541834    
   4.91481400      0.647047520      -8.00000000       1654.29834       2.46541834    
   5.00000000       0.00000000      -8.00000000       1654.29834       2.46541834    
   5.00000000       0.00000000      -9.00000000       1654.29834       2.46541834    
   4.91481400      0.647047520      -8.00000000       1937.24939       2.40304589    
   4.91481400      0.647047520      -7.00000000       1937.24939       2.40304589    
   5.00000000       0.00000000      -7.00000000       1937.24939       2.40304589    
   5.00000000       0.00000000      -8.00000000       1937.24939       2.40304589    
   4.91481400      0.647047520      -7.00000000       2217.06885       2.36881828    
   4.91481400      0.647047520      -6.00000000       2217.06885       2.36881828    
   5.00000000       0.00000000      -6.00000000       2217.06885       2.36881828    
   5.00000000       0.00000000      -7.00000000       2217.06885       2.36881828    
   4.91481400      0.647047520      -6.00000000       2505.00366       2.34815335    
   4.91481400      0.647047520      -5.00000000       2505.00366       2.34815335    
   5.00000000       0.00000000      -5.00000000       2505.00366       2.34815335    
   5.00000000       0.00000000      -6.00000000       2505.00366       2.34815335    
   4.91481400      0.647047520      -5.00000000       2808.41870       2.33517694    
   4.91481400      0.647047520      -4.00000000       2808.41870       2.33517694    
   5.00000000       0.00000000      -4.00000000       2808.41870       2.33517694    
   5.00000000       0.00000000      -5.00000000       2808.41870       2.33517694    
   4.91481400      0.647047520      -4.00000000       3132.48071       2.32684922    
   4.91481400      0.647047520      -3.00000000       3132.48071       2.32684922    
   5.00000000       0.00000000      -3.00000000       3132.48071       2.32684922    
   5.00000000       0.00000000      -4.00000000       3132.48071       2.32684922    
   4.91481400      0.647047520      -3.00000000       3480.99146       2.32171702    
   4.91481400      0.647047520      -2.00000000       3480.99146       2.32171702    
   5.00000000       0.00000000      -2.00000000       3480.99146       2.32171702    
   5.00000000       0.00000000      -3.00000000       3480.99146       2.32171702    
   4.91481400      0.647047520      -2.00000000       3857.82153       2.31900263    
   4.91481400      0.647047520      -1.00000000       3857.82153       2.31900263    
   5.00000000       0.00000000      -1.00000000       3857.82153       2.31900263    
   5.00000000       0.00000000      -2.00000000       3857.82153       2.31900263    
   4.91481400      0.647047520      -1.00000000       4264.05371       2.31810665    
   4.91481400      0.647047520       0.00000000       4264.05371       2.31810665    
   5.00000000       0.00000000       0.00000000       4264.05371       2.31810665    
   5.00000000       0.00000000      -1.00000000       4264.05371       2.31810665    
   4.33012676       2.50000000      -10.0000000       1198.62134       2.65282249    
   4.33012676       2.50000000      -9.00000000       1198.62134       2.65282249    
   4.57987785       1.89704800      -9.00000000       1198.62134       2.65282249    
   4.57987785       1.89704800      -10.0000000       1198.62134       2.65282249    
   4.33012676       2.50000000      -9.00000000       1454.48633       2.48487639    
   4.33012676       2.50000000      -8.00000000       1454.48633       2.48487639    
   4.57987785       1.89704800      -8.00000000       1454.48633       2.48487639    
   4.57987785       1.89704800      -9.00000000       1454.48633       2.48487639    
   4.33012676       2.50000000      -8.00000000       1696.29736       2.41587663    
   4.33012676       2.50000000      -7.00000000       1696.29736       2.41587663    
   4.57987785       1.89704800      -7.00000000       1696.29736       2.41587663    
   4.57987785       1.89704800      -8.00000000       1696.29736       2.41587663    
   4.33012676       2.50000000      -7.00000000       1938.07349       2.37809634    
   4.33012676       2.50000000      -6.00000000       1938.07349       2.37809634    
   4.57987785       1.89704800      -6.00000000       1938.07349       2.37809634    
   4.57987785       1.89704800      -7.00000000       1938.07349       2.37809634    
   4.33012676       2.50000000      -6.00000000       2188.02759       2.35538292    
   4.33012676       2.50000000      -5.00000000       2188.02759       2.35538292    
   4.57987785       1.89704800      -5.00000000       2188.02759       2.35538292    
   4.57987785       1.89704800      -6.00000000       2188.02759       2.35538292    
   4.33012676       2.50000000      -5.00000000       2452.04639       2.34117579    
   4.33012676       2.50000000      -4.00000000       2452.04639       2.34117579    
   4.57987785       1.89704800      -4.00000000       2452.04639       2.34117579    
   4.57987785       1.89704800      -5.00000000       2452.04639       2.34117579    
   4.33012676       2.50000000      -4.00000000       2734.35376       2.33208966    
   4.33012676       2.50000000      -3.00000000       2734.35376       2.33208966    
   4.57987785       1.89704800      -3.00000000       2734.35376       2.33208966    
   4.57987785       1.89704800      -4.00000000       2734.35376       2.33208966    
   4.33012676       2.50000000      -3.00000000       3038.14404       2.32651591    
   4.33012676       2.50000000      -2.00000000       3038.14404       2.32651591    
   4.57987785       1.89704800      -2.00000000       3038.14404       2.32651591    
   4.57987785       1.89704800      -3.00000000       3038.14404       2.32651591    
   4.33012676       2.50000000      -2.00000000       3366.79395       2.32359099    
   4.33012676       2.50000000      -1.00000000       3366.79395       2.32359099    
   4.57987785       1.89704800      -1.00000000       3366.79395       2.32359099    
   4.57987785       1.89704800      -2.00000000       3366.79395       2.32359099    
   4.33012676       2.50000000      -1.00000000       3721.06494       2.32270312    
   4.33012676       2.50000000       0.00000000       3721.06494       2.32270312    
   4.57987785       1.89704800       0.00000000       3721.06494       2.32270312    
   4.57987785       1.89704800      -1.00000000       3721.06494       2.32270312    
   4.57987785       1.89704800      -10.0000000       1265.17212       2.63616204    
   4.57987785       1.89704800      -9.00000000       1265.17212       2.63616204    
   4.82962894       1.29409504      -9.00000000       1265.17212       2.63616204    
   4.82962894       1.29409504      -10.0000000       1265.17212       2.63616204    
   4.57987785       1.89704800      -9.00000000       1546.98462       2.47518468    
   4.57987785       1.89704800      -8.00000000       1546.98462       2.47518468    
   4.82962894       1.29409504      -8.00000000       1546.98462       2.47518468    
   4.82962894       1.29409504      -9.00000000       1546.98462       2.47518468    
   4.57987785       1.89704800      -8.00000000       1808.14270       2.40936136    
   4.57987785       1.89704800      -7.00000000       1808.14270       2.40936136    
   4.82962894       1.29409504      -7.00000000       1808.14270       2.40936136    
   4.82962894       1.29409504      -8.00000000       1808.14270       2.40936136    
   4.57987785       1.89704800      -7.00000000       2067.75781       2.37330127    
   4.57987785       1.89704800      -6.00000000       2067.75781       2.37330127    
   4.82962894       1.29409504      -6.00000000       2067.75781       2.37330127    
   4.82962894       1.29409504      -7.00000000       2067.75781       2.37330127    
   4.57987785       1.89704800      -6.00000000       2335.49146       2.35158157    
   4.57987785       1.89704800      -5.00000000       2335.49146       2.35158157    
   4.82962894       1.29409504      -5.00000000       2335.49146       2.35158157    
   4.82962894       1.29409504      -6.00000000       2335.49146       2.35158157    
   4.57987785       1.89704800      -5.00000000       2617.91675       2.33797336    
   4.57987785       1.89704800      -4.00000000       2617.91675       2.33797336    
   4.82962894       1.29409504      -4.00000000       2617.91675       2.33797336    
   4.82962894       1.29409504      -5.00000000       2617.91675       2.33797336    
   4.57987785       1.89704800      -4.00000000       2919.70923       2.32925558    
   4.57987785       1.89704800      -3.00000000       2919.70923       2.32925558    
   4.82962894       1.29409504      -3.00000000       2919.70923       2.32925558    
   4.82962894       1.29409504      -4.00000000       2919.70923       2.32925558    
   4.57987785       1.89704800      -3.00000000       3244.36597       2.32389569    
   4.57987785       1.89704800      -2.00000000       3244.36597       2.32389569    
   4.82962894       1.29409504      -2.00000000       3244.36597       2.32389569    
   4.82962894       1.29409504      -3.00000000       3244.36597       2.32389569    
   4.57987785       1.89704800      -2.00000000       3595.47046       2.32107377    
   4.57987785       1.89704800      -1.00000000       3595.47046       2.32107377    
   4.82962894       1.29409504      -1.00000000       3595.47046       2.32107377    
   4.82962894       1.29409504      -2.00000000       3595.47046       2.32107377    
   4.57987785       1.89704800      -1.00000000       3974.05371       2.32017636    
   4.57987785       1.89704800       0.00000000       3974.05371       2.32017636    
   4.82962894       1.29409504       0.00000000       3974.05371       2.32017636    
   4.82962894       1.29409504      -1.00000000       3974.05371       2.32017636    
   3.53553391       3.53553391      -10.0000000       997.803955       2.73083925    
   3.53553391       3.53553391      -9.00000000       997.803955       2.73083925    
   3.93283010       3.01776695      -9.00000000       997.803955       2.73083925    
   3.93283010       3.01776695      -10.0000000       997.803955       2.73083925    
   3.53553391       3.53553391      -9.00000000       1170.76514       2.53850508    
   3.53553391       3.53553391      -8.00000000       1170.76514       2.53850508    
   3.93283010       3.01776695      -8.00000000       1170.76514       2.53850508    
   3.93283010       3.01776695      -9.00000000       1170.76514       2.53850508    
   3.53553391       3.53553391      -8.00000000       1351.99426       2.45692348    
   3.53553391       3.53553391      -7.00000000       1351.99426       2.45692348    
   3.93283010       3.01776695      -7.00000000       1351.99426       2.45692348    
   3.93283010       3.01776695      -8.00000000       1351.99426       2.45692348    
   3.53553391       3.53553391      -7.00000000       1538.23315       2.41207838    
   3.53553391       3.53553391      -6.00000000       1538.23315       2.41207838    
   3.93283010       3.01776695      -6.00000000       1538.23315       2.41207838    
   3.93283010       3.01776695      -7.00000000       1538.23315       2.41207838    
   3.53553391       3.53553391      -6.00000000       1733.03699       2.38518095    
   3.53553391       3.53553391      -5.00000000       1733.03699       2.38518095    
   3.93283010       3.01776695      -5.00000000       1733.03699       2.38518095    
   3.93283010       3.01776695      -6.00000000       1733.03699       2.38518095    
   3.53553391       3.53553391      -5.00000000       1940.02258       2.36841297    
   3.53553391       3.53553391      -4.00000000       1940.02258       2.36841297    
   3.93283010       3.01776695      -4.00000000       1940.02258       2.36841297    
   3.93283010       3.01776695      -5.00000000       1940.02258       2.36841297    
   3.53553391       3.53553391      -4.00000000       2161.99683       2.35773516    
   3.53553391       3.53553391      -3.00000000       2161.99683       2.35773516    
   3.93283010       3.01776695      -3.00000000       2161.99683       2.35773516    
   3.93283010       3.01776695      -4.00000000       2161.99683       2.35773516    
   3.53553391       3.53553391      -3.00000000       2401.27563       2.35122418    
   3.53553391       3.53553391      -2.00000000       2401.27563       2.35122418    
   3.93283010       3.01776695      -2.00000000       2401.27563       2.35122418    
   3.93283010       3.01776695      -3.00000000       2401.27563       2.35122418    
   3.53553391       3.53553391      -2.00000000       2660.50610       2.34784627    
   3.53553391       3.53553391      -1.00000000       2660.50610       2.34784627    
   3.93283010       3.01776695      -1.00000000       2660.50610       2.34784627    
   3.93283010       3.01776695      -2.00000000       2660.50610       2.34784627    
   3.53553391       3.53553391      -1.00000000       2940.11719       2.34695005    
   3.53553391       3.53553391       0.00000000       2940.11719       2.34695005    
   3.93283010       3.01776695       0.00000000       2940.11719       2.34695005    
   3.93283010       3.01776695      -1.00000000       2940.11719       2.34695005    
   3.93283010       3.01776695      -10.0000000       1097.37537       2.68855453    
   3.93283010       3.01776695      -9.00000000       1097.37537       2.68855453    
   4.33012676       2.50000000      -9.00000000       1097.37537       2.68855453    
   4.33012676       2.50000000      -10.0000000       1097.37537       2.68855453    
   3.93283010       3.01776695      -9.00000000       1312.52271       2.50855947    
   3.93283010       3.01776695      -8.00000000       1312.52271       2.50855947    
   4.33012676       2.50000000      -8.00000000       1312.52271       2.50855947    
   4.33012676       2.50000000      -9.00000000       1312.52271       2.50855947    
   3.93283010       3.01776695      -8.00000000       1524.77930       2.43360829    
   3.93283010       3.01776695      -7.00000000       1524.77930       2.43360829    
   4.33012676       2.50000000      -7.00000000       1524.77930       2.43360829    
   4.33012676       2.50000000      -8.00000000       1524.77930       2.43360829    
   3.93283010       3.01776695      -7.00000000       1739.33801       2.39255619    
   3.93283010       3.01776695      -6.00000000       1739.33801       2.39255619    
   4.33012676       2.50000000      -6.00000000       1739.33801       2.39255619    
   4.33012676       2.50000000      -7.00000000       1739.33801       2.39255619    
   3.93283010       3.01776695      -6.00000000       1962.18896       2.36791801    
   3.93283010       3.01776695      -5.00000000       1962.18896       2.36791801    
   4.33012676       2.50000000      -5.00000000       1962.18896       2.36791801    
   4.33012676       2.50000000      -6.00000000       1962.18896       2.36791801    
   3.93283010       3.01776695      -5.00000000       2198.09644       2.35254169    
   3.93283010       3.01776695      -4.00000000       2198.09644       2.35254169    
   4.33012676       2.50000000      -4.00000000       2198.09644       2.35254169    
   4.33012676       2.50000000      -5.00000000       2198.09644       2.35254169    
   3.93283010       3.01776695      -4.00000000       2450.60742       2.34272909    
   3.93283010       3.01776695      -3.00000000       2450.60742       2.34272909    
   4.33012676       2.50000000      -3.00000000       2450.60742       2.34272909    
   4.33012676       2.50000000      -4.00000000       2450.60742       2.34272909    
   3.93283010       3.01776695      -3.00000000       2722.51855       2.33672762    
   3.93283010       3.01776695      -2.00000000       2722.51855       2.33672762    
   4.33012676       2.50000000      -2.00000000       2722.51855       2.33672762    
   4.33012676       2.50000000      -3.00000000       2722.51855       2.33672762    
   3.93283010       3.01776695      -2.00000000       3016.81738       2.33359551    
   3.93283010       3.01776695      -1.00000000       3016.81738       2.33359551    
   4.33012676       2.50000000      -1.00000000       3016.81738       2.33359551    
   4.33012676       2.50000000      -2.00000000       3016.81738       2.33359551    
   3.93283010       3.01776695      -1.00000000       3334.32593       2.33268476    
   3.93283010       3.01776695       0.00000000       3334.32593       2.33268476    
   4.33012676       2.50000000       0.00000000       3334.32593       2.33268476    
   4.33012676       2.50000000      -1.00000000       3334.32593       2.33268476    
   2.50000000       4.33012676      -10.0000000       759.040222       2.92032242    
   2.50000000       4.33012676      -9.00000000       759.040222       2.92032242    
   3.01776695       3.93283010      -9.00000000       759.040222       2.92032242    
   3.01776695       3.93283010      -10.0000000       759.040222       2.92032242    
   2.50000000       4.33012676      -9.00000000       815.996033       2.70086265    
   2.50000000       4.33012676      -8.00000000       815.996033       2.70086265    
   3.01776695       3.93283010      -8.00000000       815.996033       2.70086265    
   3.01776695       3.93283010      -9.00000000       815.996033       2.70086265    
   2.50000000       4.33012676      -8.00000000       913.268738       2.59665847    
   2.50000000       4.33012676      -7.00000000       913.268738       2.59665847    
   3.01776695       3.93283010      -7.00000000       913.268738       2.59665847    
   3.01776695       3.93283010      -8.00000000       913.268738       2.59665847    
   2.50000000       4.33012676      -7.00000000       1023.98877       2.53721595    
   2.50000000       4.33012676      -6.00000000       1023.98877       2.53721595    
   3.01776695       3.93283010      -6.00000000       1023.98877       2.53721595    
   3.01776695       3.93283010      -7.00000000       1023.98877       2.53721595    
   2.50000000       4.33012676      -6.00000000       1144.84900       2.50106311    
   2.50000000       4.33012676      -5.00000000       1144.84900       2.50106311    
   3.01776695       3.93283010      -5.00000000       1144.84900       2.50106311    
   3.01776695       3.93283010      -6.00000000       1144.84900       2.50106311    
   2.50000000       4.33012676      -5.00000000       1276.09082       2.47840643    
   2.50000000       4.33012676      -4.00000000       1276.09082       2.47840643    
   3.01776695       3.93283010      -4.00000000       1276.09082       2.47840643    
   3.01776695       3.93283010      -5.00000000       1276.09082       2.47840643    
   2.50000000       4.33012676      -4.00000000       1418.45068       2.46398067    
   2.50000000       4.33012676      -3.00000000       1418.45068       2.46398067    
   3.01776695       3.93283010      -3.00000000       1418.45068       2.46398067    
   3.01776695       3.93283010      -4.00000000       1418.45068       2.46398067    
   2.50000000       4.33012676      -3.00000000       1573.00586       2.45523572    
   2.50000000       4.33012676      -2.00000000       1573.00586       2.45523572    
   3.01776695       3.93283010      -2.00000000       1573.00586       2.45523572    
   3.01776695       3.93283010      -3.00000000       1573.00586       2.45523572    
   2.50000000       4.33012676      -2.00000000       1741.44202       2.45076156    
   2.50000000       4.33012676      -1.00000000       1741.44202       2.45076156    
   3.01776695       3.93283010      -1.00000000       1741.44202       2.45076156    
   3.01776695       3.93283010      -2.00000000       1741.44202       2.45076156    
   2.50000000       4.33012676      -1.00000000       1923.82092       2.44983530    
   2.50000000       4.33012676       0.00000000       1923.82092       2.44983530    
   3.01776695       3.93283010       0.00000000       1923.82092       2.44983530    
   3.01776695       3.93283010      -1.00000000       1923.82092       2.44983530    
   3.01776695       3.93283010      -10.0000000       868.967957       2.81659174    
   3.01776695       3.93283010      -9.00000000       868.967957       2.81659174    
   3.53553391       3.53553391      -9.00000000       868.967957       2.81659174    
   3.53553391       3.53553391      -10.0000000       868.967957       2.81659174    
   3.01776695       3.93283010      -9.00000000       982.417542       2.60714555    
   3.01776695       3.93283010      -8.00000000       982.417542       2.60714555    
   3.53553391       3.53553391      -8.00000000       982.417542       2.60714555    
   3.53553391       3.53553391      -9.00000000       982.417542       2.60714555    
   3.01776695       3.93283010      -8.00000000       1121.07007       2.51408291    
   3.01776695       3.93283010      -7.00000000       1121.07007       2.51408291    
   3.53553391       3.53553391      -7.00000000       1121.07007       2.51408291    
   3.53553391       3.53553391      -8.00000000       1121.07007       2.51408291    
   3.01776695       3.93283010      -7.00000000       1268.76978       2.46231627    
   3.01776695       3.93283010      -6.00000000       1268.76978       2.46231627    
   3.53553391       3.53553391      -6.00000000       1268.76978       2.46231627    
   3.53553391       3.53553391      -7.00000000       1268.76978       2.46231627    
   3.01776695       3.93283010      -6.00000000       1425.63562       2.43115592    
   3.01776695       3.93283010      -5.00000000       1425.63562       2.43115592    
   3.53553391       3.53553391      -5.00000000       1425.63562       2.43115592    
   3.53553391       3.53553391      -6.00000000       1425.63562       2.43115592    
   3.01776695       3.93283010      -5.00000000       1593.56396       2.41172767    
   3.01776695       3.93283010      -4.00000000       1593.56396       2.41172767    
   3.53553391       3.53553391      -4.00000000       1593.56396       2.41172767    
   3.53553391       3.53553391      -5.00000000       1593.56396       2.41172767    
   3.01776695       3.93283010      -4.00000000       1774.34912       2.39937401    
   3.01776695       3.93283010      -3.00000000       1774.34912       2.39937401    
   3.53553391       3.53553391      -3.00000000       1774.34912       2.39937401    
   3.53553391       3.53553391      -4.00000000       1774.34912       2.39937401    
   3.01776695       3.93283010      -3.00000000       1969.71521       2.39186096    
   3.01776695       3.93283010      -2.00000000       1969.71521       2.39186096    
   3.53553391       3.53553391      -2.00000000       1969.71521       2.39186096    
   3.53553391       3.53553391      -3.00000000       1969.71521       2.39186096    
   3.01776695       3.93283010      -2.00000000       2181.77539       2.38799453    
   3.01776695       3.93283010      -1.00000000       2181.77539       2.38799453    
   3.53553391       3.53553391      -1.00000000       2181.77539       2.38799453    
   3.53553391       3.53553391      -2.00000000       2181.77539       2.38799453    
   3.01776695       3.93283010      -1.00000000       2411.05444       2.38702941    
   3.01776695       3.93283010       0.00000000       2411.05444       2.38702941    
   3.53553391       3.53553391       0.00000000       2411.05444       2.38702941    
   3.53553391       3.53553391      -1.00000000       2411.05444       2.38702941    
   1.29409504       4.82962894      -10.0000000       576.993591      -2.93146634    
   1.29409504       4.82962894      -9.00000000       576.993591      -2.93146634    
   1.89704800       4.57987785      -9.00000000       576.993591      -2.93146634    
   1.89704800       4.57987785      -10.0000000       576.993591      -2.93146634    
   1.29409504       4.82962894      -9.00000000       514.202637      -3.05781388    
   1.29409504       4.82962894      -8.00000000       514.202637      -3.05781388    
   1.89704800       4.57987785      -8.00000000       514.202637      -3.05781388    
   1.89704800       4.57987785      -9.00000000       514.202637      -3.05781388    
   1.29409504       4.82962894      -8.00000000       516.526001       3.13898993    
   1.29409504       4.82962894      -7.00000000       516.526001       3.13898993    
   1.89704800       4.57987785      -7.00000000       516.526001       3.13898993    
   1.89704800       4.57987785      -8.00000000       516.526001       3.13898993    
   1.29409504       4.82962894      -7.00000000       542.135681       3.07908821    
   1.29409504       4.82962894      -6.00000000       542.135681       3.07908821    
   1.89704800       4.57987785      -6.00000000       542.135681       3.07908821    
   1.89704800       4.57987785      -7.00000000       542.135681       3.07908821    
   1.29409504       4.82962894      -6.00000000       581.741699       3.03815365    
   1.29409504       4.82962894      -5.00000000       581.741699       3.03815365    
   1.89704800       4.57987785      -5.00000000       581.741699       3.03815365    
   1.89704800       4.57987785      -6.00000000       581.741699       3.03815365    
   1.29409504       4.82962894      -5.00000000       631.925903       3.01054096    
   1.29409504       4.82962894      -4.00000000       631.925903       3.01054096    
   1.89704800       4.57987785      -4.00000000       631.925903       3.01054096    
   1.89704800       4.57987785      -5.00000000       631.925903       3.01054096    
   1.29409504       4.82962894      -4.00000000       690.966125       2.99229622    
   1.29409504       4.82962894      -3.00000000       690.966125       2.99229622    
   1.89704800       4.57987785      -3.00000000       690.966125       2.99229622    