 VARIABLES="X" "Y" "Z" "abs(p) (Pa)" "angle(p) (rad)"
ZONE N=   1080,E =     600, F=FEPOINT, ET=QUADRILATERAL
   4.82962894       1.29409504      -10.0000000       312.946503       1.59747863    
   4.82962894       1.29409504      -9.00000000       312.946503       1.59747863    
   4.91481400      0.647047520      -9.00000000       312.946503       1.59747863    
   4.91481400      0.647047520      -10.0000000       312.946503       1.59747863    
   4.82962894       1.29409504      -9.00000000       374.195923       1.59565139    
   4.82962894       1.29409504      -8.00000000       374.195923       1.59565139    
   4.91481400      0.647047520      -8.00000000       374.195923       1.59565139    
   4.91481400      0.647047520      -9.00000000       374.195923       1.59565139    
   4.82962894       1.29409504      -8.00000000       549.657410       1.58889568    
   4.82962894       1.29409504      -7.00000000       549.657410       1.58889568    
   4.91481400      0.647047520      -7.00000000       549.657410       1.58889568    
   4.91481400      0.647047520      -8.00000000       549.657410       1.58889568    
   4.82962894       1.29409504      -7.00000000       771.689758       1.58436739    
   4.82962894       1.29409504      -6.00000000       771.689758       1.58436739    
   4.91481400      0.647047520      -6.00000000       771.689758       1.58436739    
   4.91481400      0.647047520      -7.00000000       771.689758       1.58436739    
   4.82962894       1.29409504      -6.00000000       1016.89319       1.58154225    
   4.82962894       1.29409504      -5.00000000       1016.89319       1.58154225    
   4.91481400      0.647047520      -5.00000000       1016.89319       1.58154225    
   4.91481400      0.647047520      -6.00000000       1016.89319       1.58154225    
   4.82962894       1.29409504      -5.00000000       1270.74438       1.57971752    
   4.82962894       1.29409504      -4.00000000       1270.74438       1.57971752    
   4.91481400      0.647047520      -4.00000000       1270.74438       1.57971752    
   4.91481400      0.647047520      -5.00000000       1270.74438       1.57971752    
   4.82962894       1.29409504      -4.00000000       1521.32056       1.57849848    
   4.82962894       1.29409504      -3.00000000       1521.32056       1.57849848    
   4.91481400      0.647047520      -3.00000000       1521.32056       1.57849848    
   4.91481400      0.647047520      -4.00000000       1521.32056       1.57849848    
   4.82962894       1.29409504      -3.00000000       1757.14856       1.57766747    
   4.82962894       1.29409504      -2.00000000       1757.14856       1.57766747    
   4.91481400      0.647047520      -2.00000000       1757.14856       1.57766747    
   4.91481400      0.647047520      -3.00000000       1757.14856       1.57766747    
   4.82962894       1.29409504      -2.00000000       1964.07983       1.57711625    
   4.82962894       1.29409504      -1.00000000       1964.07983       1.57711625    
   4.91481400      0.647047520      -1.00000000       1964.07983       1.57711625    
   4.91481400      0.647047520      -2.00000000       1964.07983       1.57711625    
   4.82962894       1.29409504      -1.00000000       2117.32349       1.57681274    
   4.82962894       1.29409504       0.00000000       2117.32349       1.57681274    
   4.91481400      0.647047520       0.00000000       2117.32349       1.57681274    
   4.91481400      0.647047520      -1.00000000       2117.32349       1.57681274    
   4.91481400      0.647047520      -10.0000000       93.3467331       1.60249686    
   4.91481400      0.647047520      -9.00000000       93.3467331       1.60249686    
   5.00000000       0.00000000      -9.00000000       93.3467331       1.60249686    
   5.00000000       0.00000000      -10.0000000       93.3467331       1.60249686    
   4.91481400      0.647047520      -9.00000000       123.151093       1.59762108    
   4.91481400      0.647047520      -8.00000000       123.151093       1.59762108    
   5.00000000       0.00000000      -8.00000000       123.151093       1.59762108    
   5.00000000       0.00000000      -9.00000000       123.151093       1.59762108    
   4.91481400      0.647047520      -8.00000000       195.576599       1.58886480    
   4.91481400      0.647047520      -7.00000000       195.576599       1.58886480    
   5.00000000       0.00000000      -7.00000000       195.576599       1.58886480    
   5.00000000       0.00000000      -8.00000000       195.576599       1.58886480    
   4.91481400      0.647047520      -7.00000000       284.607483       1.58386040    
   4.91481400      0.647047520      -6.00000000       284.607483       1.58386040    
   5.00000000       0.00000000      -6.00000000       284.607483       1.58386040    
   5.00000000       0.00000000      -7.00000000       284.607483       1.58386040    
   4.91481400      0.647047520      -6.00000000       381.981720       1.58095312    
   4.91481400      0.647047520      -5.00000000       381.981720       1.58095312    
   5.00000000       0.00000000      -5.00000000       381.981720       1.58095312    
   5.00000000       0.00000000      -6.00000000       381.981720       1.58095312    
   4.91481400      0.647047520      -5.00000000       482.381622       1.57914007    
   4.91481400      0.647047520      -4.00000000       482.381622       1.57914007    
   5.00000000       0.00000000      -4.00000000       482.381622       1.57914007    
   5.00000000       0.00000000      -5.00000000       482.381622       1.57914007    
   4.91481400      0.647047520      -4.00000000       581.835938       1.57794726    
   4.91481400      0.647047520      -3.00000000       581.835938       1.57794726    
   5.00000000       0.00000000      -3.00000000       581.835938       1.57794726    
   5.00000000       0.00000000      -4.00000000       581.835938       1.57794726    
   4.91481400      0.647047520      -3.00000000       675.868958       1.57714164    
   4.91481400      0.647047520      -2.00000000       675.868958       1.57714164    
   5.00000000       0.00000000      -2.00000000       675.868958       1.57714164    
   5.00000000       0.00000000      -3.00000000       675.868958       1.57714164    
   4.91481400      0.647047520      -2.00000000       759.635010       1.57659864    
   4.91481400      0.647047520      -1.00000000       759.635010       1.57659864    
   5.00000000       0.00000000      -1.00000000       759.635010       1.57659864    
   5.00000000       0.00000000      -2.00000000       759.635010       1.57659864    
   4.91481400      0.647047520      -1.00000000       823.454529       1.57628989    
   4.91481400      0.647047520       0.00000000       823.454529       1.57628989    
   5.00000000       0.00000000       0.00000000       823.454529       1.57628989    
   5.00000000       0.00000000      -1.00000000       823.454529       1.57628989    
   4.33012676       2.50000000      -10.0000000       697.910034       1.59814501    
   4.33012676       2.50000000      -9.00000000       697.910034       1.59814501    
   4.57987785       1.89704800      -9.00000000       697.910034       1.59814501    
   4.57987785       1.89704800      -10.0000000       697.910034       1.59814501    
   4.33012676       2.50000000      -9.00000000       846.037231       1.59594035    
   4.33012676       2.50000000      -8.00000000       846.037231       1.59594035    
   4.57987785       1.89704800      -8.00000000       846.037231       1.59594035    
   4.57987785       1.89704800      -9.00000000       846.037231       1.59594035    
   4.33012676       2.50000000      -8.00000000       1257.43567       1.58889151    
   4.33012676       2.50000000      -7.00000000       1257.43567       1.58889151    
   4.57987785       1.89704800      -7.00000000       1257.43567       1.58889151    
   4.57987785       1.89704800      -8.00000000       1257.43567       1.58889151    
   4.33012676       2.50000000      -7.00000000       1775.39722       1.58428669    
   4.33012676       2.50000000      -6.00000000       1775.39722       1.58428669    
   4.57987785       1.89704800      -6.00000000       1775.39722       1.58428669    
   4.57987785       1.89704800      -7.00000000       1775.39722       1.58428669    
   4.33012676       2.50000000      -6.00000000       2346.46777       1.58144581    
   4.33012676       2.50000000      -5.00000000       2346.46777       1.58144581    
   4.57987785       1.89704800      -5.00000000       2346.46777       1.58144581    
   4.57987785       1.89704800      -6.00000000       2346.46777       1.58144581    
   4.33012676       2.50000000      -5.00000000       2937.27344       1.57962298    
   4.33012676       2.50000000      -4.00000000       2937.27344       1.57962298    
   4.57987785       1.89704800      -4.00000000       2937.27344       1.57962298    
   4.57987785       1.89704800      -5.00000000       2937.27344       1.57962298    
   4.33012676       2.50000000      -4.00000000       3520.79907       1.57840741    
   4.33012676       2.50000000      -3.00000000       3520.79907       1.57840741    
   4.57987785       1.89704800      -3.00000000       3520.79907       1.57840741    
   4.57987785       1.89704800      -4.00000000       3520.79907       1.57840741    
   4.33012676       2.50000000      -3.00000000       4070.43286       1.57758033    
   4.33012676       2.50000000      -2.00000000       4070.43286       1.57758033    
   4.57987785       1.89704800      -2.00000000       4070.43286       1.57758033    
   4.57987785       1.89704800      -3.00000000       4070.43286       1.57758033    
   4.33012676       2.50000000      -2.00000000       4553.95459       1.57703078    
   4.33012676       2.50000000      -1.00000000       4553.95459       1.57703078    
   4.57987785       1.89704800      -1.00000000       4553.95459       1.57703078    
   4.57987785       1.89704800      -2.00000000       4553.95459       1.57703078    
   4.33012676       2.50000000      -1.00000000       4913.81299       1.57672441    
   4.33012676       2.50000000       0.00000000       4913.81299       1.57672441    
   4.57987785       1.89704800       0.00000000       4913.81299       1.57672441    
   4.57987785       1.89704800      -1.00000000       4913.81299       1.57672441    
   4.57987785       1.89704800      -10.0000000       493.276459       1.59930229    
   4.57987785       1.89704800      -9.00000000       493.276459       1.59930229    
   4.82962894       1.29409504      -9.00000000       493.276459       1.59930229    
   4.82962894       1.29409504      -10.0000000       493.276459       1.59930229    
   4.57987785       1.89704800      -9.00000000       612.106628       1.59641874    
   4.57987785       1.89704800      -8.00000000       612.106628       1.59641874    
   4.82962894       1.29409504      -8.00000000       612.106628       1.59641874    
   4.82962894       1.29409504      -9.00000000       612.106628       1.59641874    
   4.57987785       1.89704800      -8.00000000       927.481079       1.58888292    
   4.57987785       1.89704800      -7.00000000       927.481079       1.58888292    
   4.82962894       1.29409504      -7.00000000       927.481079       1.58888292    
   4.82962894       1.29409504      -8.00000000       927.481079       1.58888292    
   4.57987785       1.89704800      -7.00000000       1321.51245       1.58415985    
   4.57987785       1.89704800      -6.00000000       1321.51245       1.58415985    
   4.82962894       1.29409504      -6.00000000       1321.51245       1.58415985    
   4.82962894       1.29409504      -7.00000000       1321.51245       1.58415985    
   4.57987785       1.89704800      -6.00000000       1754.82251       1.58129478    
   4.57987785       1.89704800      -5.00000000       1754.82251       1.58129478    
   4.82962894       1.29409504      -5.00000000       1754.82251       1.58129478    
   4.82962894       1.29409504      -6.00000000       1754.82251       1.58129478    
   4.57987785       1.89704800      -5.00000000       2202.64062       1.57947469    
   4.57987785       1.89704800      -4.00000000       2202.64062       1.57947469    
   4.82962894       1.29409504      -4.00000000       2202.64062       1.57947469    
   4.82962894       1.29409504      -5.00000000       2202.64062       1.57947469    
   4.57987785       1.89704800      -4.00000000       2645.33911       1.57826519    
   4.57987785       1.89704800      -3.00000000       2645.33911       1.57826519    
   4.82962894       1.29409504      -3.00000000       2645.33911       1.57826519    
   4.82962894       1.29409504      -4.00000000       2645.33911       1.57826519    
   4.57987785       1.89704800      -3.00000000       3062.83447       1.57744384    
   4.57987785       1.89704800      -2.00000000       3062.83447       1.57744384    
   4.82962894       1.29409504      -2.00000000       3062.83447       1.57744384    
   4.82962894       1.29409504      -3.00000000       3062.83447       1.57744384    
   4.57987785       1.89704800      -2.00000000       3431.59326       1.57689559    
   4.57987785       1.89704800      -1.00000000       3431.59326       1.57689559    
   4.82962894       1.29409504      -1.00000000       3431.59326       1.57689559    
   4.82962894       1.29409504      -2.00000000       3431.59326       1.57689559    
   4.57987785       1.89704800      -1.00000000       3708.11621       1.57658732    
   4.57987785       1.89704800       0.00000000       3708.11621       1.57658732    
   4.82962894       1.29409504       0.00000000       3708.11621       1.57658732    
   4.82962894       1.29409504      -1.00000000       3708.11621       1.57658732    
   3.53553391       3.53553391      -10.0000000       1035.31641       1.59834611    
   3.53553391       3.53553391      -9.00000000       1035.31641       1.59834611    
   3.93283010       3.01776695      -9.00000000       1035.31641       1.59834611    
   3.93283010       3.01776695      -10.0000000       1035.31641       1.59834611    
   3.53553391       3.53553391      -9.00000000       1260.22803       1.59602726    
   3.53553391       3.53553391      -8.00000000       1260.22803       1.59602726    
   3.93283010       3.01776695      -8.00000000       1260.22803       1.59602726    
   3.93283010       3.01776695      -9.00000000       1260.22803       1.59602726    
   3.53553391       3.53553391      -8.00000000       1879.52039       1.58889008    
   3.53553391       3.53553391      -7.00000000       1879.52039       1.58889008    
   3.93283010       3.01776695      -7.00000000       1879.52039       1.58889008    
   3.93283010       3.01776695      -8.00000000       1879.52039       1.58889008    
   3.53553391       3.53553391      -7.00000000       2658.11133       1.58426344    
   3.53553391       3.53553391      -6.00000000       2658.11133       1.58426344    
   3.93283010       3.01776695      -6.00000000       2658.11133       1.58426344    
   3.93283010       3.01776695      -7.00000000       2658.11133       1.58426344    
   3.53553391       3.53553391      -6.00000000       3516.13647       1.58141863    
   3.53553391       3.53553391      -5.00000000       3516.13647       1.58141863    
   3.93283010       3.01776695      -5.00000000       3516.13647       1.58141863    
   3.93283010       3.01776695      -6.00000000       3516.13647       1.58141863    
   3.53553391       3.53553391      -5.00000000       4403.62939       1.57959592    
   3.53553391       3.53553391      -4.00000000       4403.62939       1.57959592    
   3.93283010       3.01776695      -4.00000000       4403.62939       1.57959592    
   3.93283010       3.01776695      -5.00000000       4403.62939       1.57959592    
   3.53553391       3.53553391      -4.00000000       5280.33594       1.57838118    
   3.53553391       3.53553391      -3.00000000       5280.33594       1.57838118    
   3.93283010       3.01776695      -3.00000000       5280.33594       1.57838118    
   3.93283010       3.01776695      -4.00000000       5280.33594       1.57838118    
   3.53553391       3.53553391      -3.00000000       6106.30518       1.57755506    
   3.53553391       3.53553391      -2.00000000       6106.30518       1.57755506    
   3.93283010       3.01776695      -2.00000000       6106.30518       1.57755506    
   3.93283010       3.01776695      -3.00000000       6106.30518       1.57755506    
   3.53553391       3.53553391      -2.00000000       6833.47998       1.57700598    
   3.53553391       3.53553391      -1.00000000       6833.47998       1.57700598    
   3.93283010       3.01776695      -1.00000000       6833.47998       1.57700598    
   3.93283010       3.01776695      -2.00000000       6833.47998       1.57700598    
   3.53553391       3.53553391      -1.00000000       7375.42773       1.57669914    
   3.53553391       3.53553391       0.00000000       7375.42773       1.57669914    
   3.93283010       3.01776695       0.00000000       7375.42773       1.57669914    
   3.93283010       3.01776695      -1.00000000       7375.42773       1.57669914    
   3.93283010       3.01776695      -10.0000000       859.591431       1.59896016    
   3.93283010       3.01776695      -9.00000000       859.591431       1.59896016    
   4.33012676       2.50000000      -9.00000000       859.591431       1.59896016    
   4.33012676       2.50000000      -10.0000000       859.591431       1.59896016    
   3.93283010       3.01776695      -9.00000000       1059.34241       1.59627974    
   3.93283010       3.01776695      -8.00000000       1059.34241       1.59627974    
   4.33012676       2.50000000      -8.00000000       1059.34241       1.59627974    
   4.33012676       2.50000000      -9.00000000       1059.34241       1.59627974    
   3.93283010       3.01776695      -8.00000000       1596.18335       1.58888590    
   3.93283010       3.01776695      -7.00000000       1596.18335       1.58888590    
   4.33012676       2.50000000      -7.00000000       1596.18335       1.58888590    
   4.33012676       2.50000000      -8.00000000       1596.18335       1.58888590    
   3.93283010       3.01776695      -7.00000000       2268.35205       1.58419609    
   3.93283010       3.01776695      -6.00000000       2268.35205       1.58419609    
   4.33012676       2.50000000      -6.00000000       2268.35205       1.58419609    
   4.33012676       2.50000000      -7.00000000       2268.35205       1.58419609    
   3.93283010       3.01776695      -6.00000000       3008.07886       1.58133817    
   3.93283010       3.01776695      -5.00000000       3008.07886       1.58133817    
   4.33012676       2.50000000      -5.00000000       3008.07886       1.58133817    
   4.33012676       2.50000000      -6.00000000       3008.07886       1.58133817    
   3.93283010       3.01776695      -5.00000000       3772.79004       1.57951689    
   3.93283010       3.01776695      -4.00000000       3772.79004       1.57951689    
   4.33012676       2.50000000      -4.00000000       3772.79004       1.57951689    
   4.33012676       2.50000000      -5.00000000       3772.79004       1.57951689    
   3.93283010       3.01776695      -4.00000000       4528.55420       1.57830560    
   3.93283010       3.01776695      -3.00000000       4528.55420       1.57830560    
   4.33012676       2.50000000      -3.00000000       4528.55420       1.57830560    
   4.33012676       2.50000000      -4.00000000       4528.55420       1.57830560    
   3.93283010       3.01776695      -3.00000000       5241.06689       1.57748258    
   3.93283010       3.01776695      -2.00000000       5241.06689       1.57748258    
   4.33012676       2.50000000      -2.00000000       5241.06689       1.57748258    
   4.33012676       2.50000000      -3.00000000       5241.06689       1.57748258    
   3.93283010       3.01776695      -2.00000000       5869.68555       1.57693422    
   3.93283010       3.01776695      -1.00000000       5869.68555       1.57693422    
   4.33012676       2.50000000      -1.00000000       5869.68555       1.57693422    
   4.33012676       2.50000000      -2.00000000       5869.68555       1.57693422    
   3.93283010       3.01776695      -1.00000000       6340.06738       1.57662642    
   3.93283010       3.01776695       0.00000000       6340.06738       1.57662642    
   4.33012676       2.50000000       0.00000000       6340.06738       1.57662642    
   4.33012676       2.50000000      -1.00000000       6340.06738       1.57662642    
   2.50000000       4.33012676      -10.0000000       1302.16418       1.59845519    
   2.50000000       4.33012676      -9.00000000       1302.16418       1.59845519    
   3.01776695       3.93283010      -9.00000000       1302.16418       1.59845519    
   3.01776695       3.93283010      -10.0000000       1302.16418       1.59845519    
   2.50000000       4.33012676      -9.00000000       1588.53271       1.59607172    
   2.50000000       4.33012676      -8.00000000       1588.53271       1.59607172    
   3.01776695       3.93283010      -8.00000000       1588.53271       1.59607172    
   3.01776695       3.93283010      -9.00000000       1588.53271       1.59607172    
   2.50000000       4.33012676      -8.00000000       2373.51636       1.58888960    
   2.50000000       4.33012676      -7.00000000       2373.51636       1.58888960    
   3.01776695       3.93283010      -7.00000000       2373.51636       1.58888960    
   3.01776695       3.93283010      -8.00000000       2373.51636       1.58888960    
   2.50000000       4.33012676      -7.00000000       3359.68335       1.58425105    
   2.50000000       4.33012676      -6.00000000       3359.68335       1.58425105    
   3.01776695       3.93283010      -6.00000000       3359.68335       1.58425105    
   3.01776695       3.93283010      -7.00000000       3359.68335       1.58425105    
   2.50000000       4.33012676      -6.00000000       4446.18701       1.58140385    
   2.50000000       4.33012676      -5.00000000       4446.18701       1.58140385    
   3.01776695       3.93283010      -5.00000000       4446.18701       1.58140385    
   3.01776695       3.93283010      -6.00000000       4446.18701       1.58140385    
   2.50000000       4.33012676      -5.00000000       5569.89160       1.57958174    
   2.50000000       4.33012676      -4.00000000       5569.89160       1.57958174    
   3.01776695       3.93283010      -4.00000000       5569.89160       1.57958174    
   3.01776695       3.93283010      -5.00000000       5569.89160       1.57958174    
   2.50000000       4.33012676      -4.00000000       6680.03955       1.57836771    
   2.50000000       4.33012676      -3.00000000       6680.03955       1.57836771    
   3.01776695       3.93283010      -3.00000000       6680.03955       1.57836771    
   3.01776695       3.93283010      -4.00000000       6680.03955       1.57836771    
   2.50000000       4.33012676      -3.00000000       7726.06006       1.57754230    
   2.50000000       4.33012676      -2.00000000       7726.06006       1.57754230    
   3.01776695       3.93283010      -2.00000000       7726.06006       1.57754230    
   3.01776695       3.93283010      -3.00000000       7726.06006       1.57754230    
   2.50000000       4.33012676      -2.00000000       8647.32617       1.57699275    
   2.50000000       4.33012676      -1.00000000       8647.32617       1.57699275    
   3.01776695       3.93283010      -1.00000000       8647.32617       1.57699275    
   3.01776695       3.93283010      -2.00000000       8647.32617       1.57699275    
   2.50000000       4.33012676      -1.00000000       9334.42676       1.57668626    
   2.50000000       4.33012676       0.00000000       9334.42676       1.57668626    
   3.01776695       3.93283010       0.00000000       9334.42676       1.57668626    
   3.01776695       3.93283010      -1.00000000       9334.42676       1.57668626    
   3.01776695       3.93283010      -10.0000000       1167.32581       1.59881675    
   3.01776695       3.93283010      -9.00000000       1167.32581       1.59881675    
   3.53553391       3.53553391      -9.00000000       1167.32581       1.59881675    
   3.53553391       3.53553391      -10.0000000       1167.32581       1.59881675    
   3.01776695       3.93283010      -9.00000000       1434.38757       1.59622073    
   3.01776695       3.93283010      -8.00000000       1434.38757       1.59622073    
   3.53553391       3.53553391      -8.00000000       1434.38757       1.59622073    
   3.53553391       3.53553391      -9.00000000       1434.38757       1.59622073    
   3.01776695       3.93283010      -8.00000000       2156.10767       1.58888638    
   3.01776695       3.93283010      -7.00000000       2156.10767       1.58888638    
   3.53553391       3.53553391      -7.00000000       2156.10767       1.58888638    
   3.53553391       3.53553391      -8.00000000       2156.10767       1.58888638    
   3.01776695       3.93283010      -7.00000000       3060.60547       1.58421123    
   3.01776695       3.93283010      -6.00000000       3060.60547       1.58421123    
   3.53553391       3.53553391      -6.00000000       3060.60547       1.58421123    
   3.53553391       3.53553391      -7.00000000       3060.60547       1.58421123    
   3.01776695       3.93283010      -6.00000000       4056.33569       1.58135688    
   3.01776695       3.93283010      -5.00000000       4056.33569       1.58135688    
   3.53553391       3.53553391      -5.00000000       4056.33569       1.58135688    
   3.53553391       3.53553391      -6.00000000       4056.33569       1.58135688    
   3.01776695       3.93283010      -5.00000000       5085.83301       1.57953501    
   3.01776695       3.93283010      -4.00000000       5085.83301       1.57953501    
   3.53553391       3.53553391      -4.00000000       5085.83301       1.57953501    
   3.53553391       3.53553391      -5.00000000       5085.83301       1.57953501    
   3.01776695       3.93283010      -4.00000000       6103.18066       1.57832313    
   3.01776695       3.93283010      -3.00000000       6103.18066       1.57832313    
   3.53553391       3.53553391      -3.00000000       6103.18066       1.57832313    
   3.53553391       3.53553391      -4.00000000       6103.18066       1.57832313    
   3.01776695       3.93283010      -3.00000000       7062.14258       1.57749939    
   3.01776695       3.93283010      -2.00000000       7062.14258       1.57749939    
   3.53553391       3.53553391      -2.00000000       7062.14258       1.57749939    
   3.53553391       3.53553391      -3.00000000       7062.14258       1.57749939    
   3.01776695       3.93283010      -2.00000000       7907.77588       1.57695067    
   3.01776695       3.93283010      -1.00000000       7907.77588       1.57695067    
   3.53553391       3.53553391      -1.00000000       7907.77588       1.57695067    
   3.53553391       3.53553391      -2.00000000       7907.77588       1.57695067    
   3.01776695       3.93283010      -1.00000000       8539.97559       1.57664347    
   3.01776695       3.93283010       0.00000000       8539.97559       1.57664347    
   3.53553391       3.53553391       0.00000000       8539.97559       1.57664347    
   3.53553391       3.53553391      -1.00000000       8539.97559       1.57664347    
   1.29409504       4.82962894      -10.0000000       1480.27332       1.59853184    
   1.29409504       4.82962894      -9.00000000       1480.27332       1.59853184    
   1.89704800       4.57987785      -9.00000000       1480.27332       1.59853184    
   1.89704800       4.57987785      -10.0000000       1480.27332       1.59853184    
   1.29409504       4.82962894      -9.00000000       1808.58301       1.59610462    
   1.29409504       4.82962894      -8.00000000       1808.58301       1.59610462    
   1.89704800       4.57987785      -8.00000000       1808.58301       1.59610462    
   1.89704800       4.57987785      -9.00000000       1808.58301       1.59610462    
   1.29409504       4.82962894      -8.00000000       2705.76636       1.58888876    
   1.29409504       4.82962894      -7.00000000       2705.76636       1.58888876    
   1.89704800       4.57987785      -7.00000000       2705.76636       1.58888876    
   1.89704800       4.57987785      -8.00000000       2705.76636       1.58888876    
   1.29409504       4.82962894      -7.00000000       3832.29370       1.58424282    
   1.29409504       4.82962894      -6.00000000       3832.29370       1.58424282    
   1.89704800       4.57987785      -6.00000000       3832.29370       1.58424282    
   1.89704800       4.57987785      -7.00000000       3832.29370       1.58424282    
   1.29409504       4.82962894      -6.00000000       5073.23438       1.58139384    
   1.29409504       4.82962894      -5.00000000       5073.23438       1.58139384    
   1.89704800       4.57987785      -5.00000000       5073.23438       1.58139384    
   1.89704800       4.57987785      -6.00000000       5073.23438       1.58139384    
   1.29409504       4.82962894      -5.00000000       6356.57373       1.57957149    
   1.29409504       4.82962894      -4.00000000       6356.57373       1.57957149    
   1.89704800       4.57987785      -4.00000000       6356.57373       1.57957149    
   1.89704800       4.57987785      -5.00000000       6356.57373       1.57957149    
   1.29409504       4.82962894      -4.00000000       7624.48828       1.57835793    
   1.29409504       4.82962894      -3.00000000       7624.48828       1.57835793    
   1.89704800       4.57987785      -3.00000000       7624.48828       1.57835793    