 VARIABLES="X" "Y" "Z" "abs(p) (Pa)" "angle(p) (rad)"
ZONE N=   1080,E =     600, F=FEPOINT, ET=QUADRILATERAL
   4.82962894       1.29409504      -10.0000000       2803.82422      -1.11351180    
   4.82962894       1.29409504      -9.00000000       2803.82422      -1.11351180    
   4.91481400      0.647047520      -9.00000000       2803.82422      -1.11351180    
   4.91481400      0.647047520      -10.0000000       2803.82422      -1.11351180    
   4.82962894       1.29409504      -9.00000000       3630.46094      -1.11025095    
   4.82962894       1.29409504      -8.00000000       3630.46094      -1.11025095    
   4.91481400      0.647047520      -8.00000000       3630.46094      -1.11025095    
   4.91481400      0.647047520      -9.00000000       3630.46094      -1.11025095    
   4.82962894       1.29409504      -8.00000000       4177.28516      -1.07377458    
   4.82962894       1.29409504      -7.00000000       4177.28516      -1.07377458    
   4.91481400      0.647047520      -7.00000000       4177.28516      -1.07377458    
   4.91481400      0.647047520      -8.00000000       4177.28516      -1.07377458    
   4.82962894       1.29409504      -7.00000000       4650.38428      -1.02461469    
   4.82962894       1.29409504      -6.00000000       4650.38428      -1.02461469    
   4.91481400      0.647047520      -6.00000000       4650.38428      -1.02461469    
   4.91481400      0.647047520      -7.00000000       4650.38428      -1.02461469    
   4.82962894       1.29409504      -6.00000000       5129.60254     -0.968832433    
   4.82962894       1.29409504      -5.00000000       5129.60254     -0.968832433    
   4.91481400      0.647047520      -5.00000000       5129.60254     -0.968832433    
   4.91481400      0.647047520      -6.00000000       5129.60254     -0.968832433    
   4.82962894       1.29409504      -5.00000000       5670.04785     -0.910734475    
   4.82962894       1.29409504      -4.00000000       5670.04785     -0.910734475    
   4.91481400      0.647047520      -4.00000000       5670.04785     -0.910734475    
   4.91481400      0.647047520      -5.00000000       5670.04785     -0.910734475    
   4.82962894       1.29409504      -4.00000000       6317.95947     -0.854374170    
   4.82962894       1.29409504      -3.00000000       6317.95947     -0.854374170    
   4.91481400      0.647047520      -3.00000000       6317.95947     -0.854374170    
   4.91481400      0.647047520      -4.00000000       6317.95947     -0.854374170    
   4.82962894       1.29409504      -3.00000000       7122.64307     -0.803974867    
   4.82962894       1.29409504      -2.00000000       7122.64307     -0.803974867    
   4.91481400      0.647047520      -2.00000000       7122.64307     -0.803974867    
   4.91481400      0.647047520      -3.00000000       7122.64307     -0.803974867    
   4.82962894       1.29409504      -2.00000000       8141.16748     -0.763857245    
   4.82962894       1.29409504      -1.00000000       8141.16748     -0.763857245    
   4.91481400      0.647047520      -1.00000000       8141.16748     -0.763857245    
   4.91481400      0.647047520      -2.00000000       8141.16748     -0.763857245    
   4.82962894       1.29409504      -1.00000000       9449.63477     -0.738925040    
   4.82962894       1.29409504       0.00000000       9449.63477     -0.738925040    
   4.91481400      0.647047520       0.00000000       9449.63477     -0.738925040    
   4.91481400      0.647047520      -1.00000000       9449.63477     -0.738925040    
   4.91481400      0.647047520      -10.0000000       2845.93408      -1.11270428    
   4.91481400      0.647047520      -9.00000000       2845.93408      -1.11270428    
   5.00000000       0.00000000      -9.00000000       2845.93408      -1.11270428    
   5.00000000       0.00000000      -10.0000000       2845.93408      -1.11270428    
   4.91481400      0.647047520      -9.00000000       3686.03662      -1.10960340    
   4.91481400      0.647047520      -8.00000000       3686.03662      -1.10960340    
   5.00000000       0.00000000      -8.00000000       3686.03662      -1.10960340    
   5.00000000       0.00000000      -9.00000000       3686.03662      -1.10960340    
   4.91481400      0.647047520      -8.00000000       4242.01709      -1.07316959    
   4.91481400      0.647047520      -7.00000000       4242.01709      -1.07316959    
   5.00000000       0.00000000      -7.00000000       4242.01709      -1.07316959    
   5.00000000       0.00000000      -8.00000000       4242.01709      -1.07316959    
   4.91481400      0.647047520      -7.00000000       4723.09766      -1.02402186    
   4.91481400      0.647047520      -6.00000000       4723.09766      -1.02402186    
   5.00000000       0.00000000      -6.00000000       4723.09766      -1.02402186    
   5.00000000       0.00000000      -7.00000000       4723.09766      -1.02402186    
   4.91481400      0.647047520      -6.00000000       5210.44287     -0.968246162    
   4.91481400      0.647047520      -5.00000000       5210.44287     -0.968246162    
   5.00000000       0.00000000      -5.00000000       5210.44287     -0.968246162    
   5.00000000       0.00000000      -6.00000000       5210.44287     -0.968246162    
   4.91481400      0.647047520      -5.00000000       5760.04980     -0.910159647    
   4.91481400      0.647047520      -4.00000000       5760.04980     -0.910159647    
   5.00000000       0.00000000      -4.00000000       5760.04980     -0.910159647    
   5.00000000       0.00000000      -5.00000000       5760.04980     -0.910159647    
   4.91481400      0.647047520      -4.00000000       6418.91504     -0.853820503    
   4.91481400      0.647047520      -3.00000000       6418.91504     -0.853820503    
   5.00000000       0.00000000      -3.00000000       6418.91504     -0.853820503    
   5.00000000       0.00000000      -4.00000000       6418.91504     -0.853820503    
   4.91481400      0.647047520      -3.00000000       7237.15283     -0.803455591    
   4.91481400      0.647047520      -2.00000000       7237.15283     -0.803455591    
   5.00000000       0.00000000      -2.00000000       7237.15283     -0.803455591    
   5.00000000       0.00000000      -3.00000000       7237.15283     -0.803455591    
   4.91481400      0.647047520      -2.00000000       8272.75586     -0.763382852    
   4.91481400      0.647047520      -1.00000000       8272.75586     -0.763382852    
   5.00000000       0.00000000      -1.00000000       8272.75586     -0.763382852    
   5.00000000       0.00000000      -2.00000000       8272.75586     -0.763382852    
   4.91481400      0.647047520      -1.00000000       9603.14551     -0.738506258    
   4.91481400      0.647047520       0.00000000       9603.14551     -0.738506258    
   5.00000000       0.00000000       0.00000000       9603.14551     -0.738506258    
   5.00000000       0.00000000      -1.00000000       9603.14551     -0.738506258    
   4.33012676       2.50000000      -10.0000000       2570.63794      -1.11440539    
   4.33012676       2.50000000      -9.00000000       2570.63794      -1.11440539    
   4.57987785       1.89704800      -9.00000000       2570.63794      -1.11440539    
   4.57987785       1.89704800      -10.0000000       2570.63794      -1.11440539    
   4.33012676       2.50000000      -9.00000000       3327.47778      -1.11096823    
   4.33012676       2.50000000      -8.00000000       3327.47778      -1.11096823    
   4.57987785       1.89704800      -8.00000000       3327.47778      -1.11096823    
   4.57987785       1.89704800      -9.00000000       3327.47778      -1.11096823    
   4.33012676       2.50000000      -8.00000000       3827.87793      -1.07444513    
   4.33012676       2.50000000      -7.00000000       3827.87793      -1.07444513    
   4.57987785       1.89704800      -7.00000000       3827.87793      -1.07444513    
   4.57987785       1.89704800      -8.00000000       3827.87793      -1.07444513    
   4.33012676       2.50000000      -7.00000000       4260.75537      -1.02527201    
   4.33012676       2.50000000      -6.00000000       4260.75537      -1.02527201    
   4.57987785       1.89704800      -6.00000000       4260.75537      -1.02527201    
   4.57987785       1.89704800      -7.00000000       4260.75537      -1.02527201    
   4.33012676       2.50000000      -6.00000000       4699.19043     -0.969482422    
   4.33012676       2.50000000      -5.00000000       4699.19043     -0.969482422    
   4.57987785       1.89704800      -5.00000000       4699.19043     -0.969482422    
   4.57987785       1.89704800      -6.00000000       4699.19043     -0.969482422    
   4.33012676       2.50000000      -5.00000000       5193.64453     -0.911372125    
   4.33012676       2.50000000      -4.00000000       5193.64453     -0.911372125    
   4.57987785       1.89704800      -4.00000000       5193.64453     -0.911372125    
   4.57987785       1.89704800      -5.00000000       5193.64453     -0.911372125    
   4.33012676       2.50000000      -4.00000000       5786.45117     -0.854987979    
   4.33012676       2.50000000      -3.00000000       5786.45117     -0.854987979    
   4.57987785       1.89704800      -3.00000000       5786.45117     -0.854987979    
   4.57987785       1.89704800      -4.00000000       5786.45117     -0.854987979    
   4.33012676       2.50000000      -3.00000000       6522.73779     -0.804551661    
   4.33012676       2.50000000      -2.00000000       6522.73779     -0.804551661    
   4.57987785       1.89704800      -2.00000000       6522.73779     -0.804551661    
   4.57987785       1.89704800      -3.00000000       6522.73779     -0.804551661    
   4.33012676       2.50000000      -2.00000000       7454.77490     -0.764382958    
   4.33012676       2.50000000      -1.00000000       7454.77490     -0.764382958    
   4.57987785       1.89704800      -1.00000000       7454.77490     -0.764382958    
   4.57987785       1.89704800      -2.00000000       7454.77490     -0.764382958    
   4.33012676       2.50000000      -1.00000000       8652.15625     -0.739388824    
   4.33012676       2.50000000       0.00000000       8652.15625     -0.739388824    
   4.57987785       1.89704800       0.00000000       8652.15625     -0.739388824    
   4.57987785       1.89704800      -1.00000000       8652.15625     -0.739388824    
   4.57987785       1.89704800      -10.0000000       2694.10376      -1.11186433    
   4.57987785       1.89704800      -9.00000000       2694.10376      -1.11186433    
   4.82962894       1.29409504      -9.00000000       2694.10376      -1.11186433    
   4.82962894       1.29409504      -10.0000000       2694.10376      -1.11186433    
   4.57987785       1.89704800      -9.00000000       3490.41675      -1.10893035    
   4.57987785       1.89704800      -8.00000000       3490.41675      -1.10893035    
   4.82962894       1.29409504      -8.00000000       3490.41675      -1.10893035    
   4.82962894       1.29409504      -9.00000000       3490.41675      -1.10893035    
   4.57987785       1.89704800      -8.00000000       4017.67139      -1.07254100    
   4.57987785       1.89704800      -7.00000000       4017.67139      -1.07254100    
   4.82962894       1.29409504      -7.00000000       4017.67139      -1.07254100    
   4.82962894       1.29409504      -8.00000000       4017.67139      -1.07254100    
   4.57987785       1.89704800      -7.00000000       4473.94385      -1.02340591    
   4.57987785       1.89704800      -6.00000000       4473.94385      -1.02340591    
   4.82962894       1.29409504      -6.00000000       4473.94385      -1.02340591    
   4.82962894       1.29409504      -7.00000000       4473.94385      -1.02340591    
   4.57987785       1.89704800      -6.00000000       4936.20264     -0.967636704    
   4.57987785       1.89704800      -5.00000000       4936.20264     -0.967636704    
   4.82962894       1.29409504      -5.00000000       4936.20264     -0.967636704    
   4.82962894       1.29409504      -6.00000000       4936.20264     -0.967636704    
   4.57987785       1.89704800      -5.00000000       5457.51514     -0.909562111    
   4.57987785       1.89704800      -4.00000000       5457.51514     -0.909562111    
   4.82962894       1.29409504      -4.00000000       5457.51514     -0.909562111    
   4.82962894       1.29409504      -5.00000000       5457.51514     -0.909562111    
   4.57987785       1.89704800      -4.00000000       6082.43311     -0.853245616    
   4.57987785       1.89704800      -3.00000000       6082.43311     -0.853245616    
   4.82962894       1.29409504      -3.00000000       6082.43311     -0.853245616    
   4.82962894       1.29409504      -4.00000000       6082.43311     -0.853245616    
   4.57987785       1.89704800      -3.00000000       6858.46777     -0.802916110    
   4.57987785       1.89704800      -2.00000000       6858.46777     -0.802916110    
   4.82962894       1.29409504      -2.00000000       6858.46777     -0.802916110    
   4.82962894       1.29409504      -3.00000000       6858.46777     -0.802916110    
   4.57987785       1.89704800      -2.00000000       7840.57324     -0.762890041    
   4.57987785       1.89704800      -1.00000000       7840.57324     -0.762890041    
   4.82962894       1.29409504      -1.00000000       7840.57324     -0.762890041    
   4.82962894       1.29409504      -2.00000000       7840.57324     -0.762890041    
   4.57987785       1.89704800      -1.00000000       9102.21387     -0.738072515    
   4.57987785       1.89704800       0.00000000       9102.21387     -0.738072515    
   4.82962894       1.29409504       0.00000000       9102.21387     -0.738072515    
   4.82962894       1.29409504      -1.00000000       9102.21387     -0.738072515    
   3.53553391       3.53553391      -10.0000000       2162.26978      -1.11556363    
   3.53553391       3.53553391      -9.00000000       2162.26978      -1.11556363    
   3.93283010       3.01776695      -9.00000000       2162.26978      -1.11556363    
   3.93283010       3.01776695      -10.0000000       2162.26978      -1.11556363    
   3.53553391       3.53553391      -9.00000000       2797.73608      -1.11189890    
   3.53553391       3.53553391      -8.00000000       2797.73608      -1.11189890    
   3.93283010       3.01776695      -8.00000000       2797.73608      -1.11189890    
   3.93283010       3.01776695      -9.00000000       2797.73608      -1.11189890    
   3.53553391       3.53553391      -8.00000000       3217.60913      -1.07531524    
   3.53553391       3.53553391      -7.00000000       3217.60913      -1.07531524    
   3.93283010       3.01776695      -7.00000000       3217.60913      -1.07531524    
   3.93283010       3.01776695      -8.00000000       3217.60913      -1.07531524    
   3.53553391       3.53553391      -7.00000000       3580.76489      -1.02612555    
   3.53553391       3.53553391      -6.00000000       3580.76489      -1.02612555    
   3.93283010       3.01776695      -6.00000000       3580.76489      -1.02612555    
   3.93283010       3.01776695      -7.00000000       3580.76489      -1.02612555    
   3.53553391       3.53553391      -6.00000000       3948.53491     -0.970326602    
   3.53553391       3.53553391      -5.00000000       3948.53491     -0.970326602    
   3.93283010       3.01776695      -5.00000000       3948.53491     -0.970326602    
   3.93283010       3.01776695      -6.00000000       3948.53491     -0.970326602    
   3.53553391       3.53553391      -5.00000000       4363.30566     -0.912201405    
   3.53553391       3.53553391      -4.00000000       4363.30566     -0.912201405    
   3.93283010       3.01776695      -4.00000000       4363.30566     -0.912201405    
   3.93283010       3.01776695      -5.00000000       4363.30566     -0.912201405    
   3.53553391       3.53553391      -4.00000000       4860.60742     -0.855786443    
   3.53553391       3.53553391      -3.00000000       4860.60742     -0.855786443    
   3.93283010       3.01776695      -3.00000000       4860.60742     -0.855786443    
   3.93283010       3.01776695      -4.00000000       4860.60742     -0.855786443    
   3.53553391       3.53553391      -3.00000000       5478.31934     -0.805301130    
   3.53553391       3.53553391      -2.00000000       5478.31934     -0.805301130    
   3.93283010       3.01776695      -2.00000000       5478.31934     -0.805301130    
   3.93283010       3.01776695      -3.00000000       5478.31934     -0.805301130    
   3.53553391       3.53553391      -2.00000000       6260.35400     -0.765068233    
   3.53553391       3.53553391      -1.00000000       6260.35400     -0.765068233    
   3.93283010       3.01776695      -1.00000000       6260.35400     -0.765068233    
   3.93283010       3.01776695      -2.00000000       6260.35400     -0.765068233    
   3.53553391       3.53553391      -1.00000000       7265.04932     -0.739992738    
   3.53553391       3.53553391       0.00000000       7265.04932     -0.739992738    
   3.93283010       3.01776695       0.00000000       7265.04932     -0.739992738    
   3.93283010       3.01776695      -1.00000000       7265.04932     -0.739992738    
   3.93283010       3.01776695      -10.0000000       2358.67261      -1.11085117    
   3.93283010       3.01776695      -9.00000000       2358.67261      -1.11085117    
   4.33012676       2.50000000      -9.00000000       2358.67261      -1.11085117    
   4.33012676       2.50000000      -10.0000000       2358.67261      -1.11085117    
   3.93283010       3.01776695      -9.00000000       3056.93213      -1.10811841    
   3.93283010       3.01776695      -8.00000000       3056.93213      -1.10811841    
   4.33012676       2.50000000      -8.00000000       3056.93213      -1.10811841    
   4.33012676       2.50000000      -9.00000000       3056.93213      -1.10811841    
   3.93283010       3.01776695      -8.00000000       3519.52295      -1.07178271    
   3.93283010       3.01776695      -7.00000000       3519.52295      -1.07178271    
   4.33012676       2.50000000      -7.00000000       3519.52295      -1.07178271    
   4.33012676       2.50000000      -8.00000000       3519.52295      -1.07178271    
   3.93283010       3.01776695      -7.00000000       3919.89917      -1.02266300    
   3.93283010       3.01776695      -6.00000000       3919.89917      -1.02266300    
   4.33012676       2.50000000      -6.00000000       3919.89917      -1.02266300    
   4.33012676       2.50000000      -7.00000000       3919.89917      -1.02266300    
   3.93283010       3.01776695      -6.00000000       4325.57178     -0.966903389    
   3.93283010       3.01776695      -5.00000000       4325.57178     -0.966903389    
   4.33012676       2.50000000      -5.00000000       4325.57178     -0.966903389    
   4.33012676       2.50000000      -6.00000000       4325.57178     -0.966903389    
   3.93283010       3.01776695      -5.00000000       4783.06250     -0.908842623    
   3.93283010       3.01776695      -4.00000000       4783.06250     -0.908842623    
   4.33012676       2.50000000      -4.00000000       4783.06250     -0.908842623    
   4.33012676       2.50000000      -5.00000000       4783.06250     -0.908842623    
   3.93283010       3.01776695      -4.00000000       5331.44678     -0.852553964    
   3.93283010       3.01776695      -3.00000000       5331.44678     -0.852553964    
   4.33012676       2.50000000      -3.00000000       5331.44678     -0.852553964    
   4.33012676       2.50000000      -4.00000000       5331.44678     -0.852553964    
   3.93283010       3.01776695      -3.00000000       6012.39160     -0.802266717    
   3.93283010       3.01776695      -2.00000000       6012.39160     -0.802266717    
   4.33012676       2.50000000      -2.00000000       6012.39160     -0.802266717    
   4.33012676       2.50000000      -3.00000000       6012.39160     -0.802266717    
   3.93283010       3.01776695      -2.00000000       6874.07031     -0.762297869    
   3.93283010       3.01776695      -1.00000000       6874.07031     -0.762297869    
   4.33012676       2.50000000      -1.00000000       6874.07031     -0.762297869    
   4.33012676       2.50000000      -2.00000000       6874.07031     -0.762297869    
   3.93283010       3.01776695      -1.00000000       7980.98926     -0.737550199    
   3.93283010       3.01776695       0.00000000       7980.98926     -0.737550199    
   4.33012676       2.50000000       0.00000000       7980.98926     -0.737550199    
   4.33012676       2.50000000      -1.00000000       7980.98926     -0.737550199    
   2.50000000       4.33012676      -10.0000000       1606.55334      -1.11741793    
   2.50000000       4.33012676      -9.00000000       1606.55334      -1.11741793    
   3.01776695       3.93283010      -9.00000000       1606.55334      -1.11741793    
   3.01776695       3.93283010      -10.0000000       1606.55334      -1.11741793    
   2.50000000       4.33012676      -9.00000000       2077.33521      -1.11339009    
   2.50000000       4.33012676      -8.00000000       2077.33521      -1.11339009    
   3.01776695       3.93283010      -8.00000000       2077.33521      -1.11339009    
   3.01776695       3.93283010      -9.00000000       2077.33521      -1.11339009    
   2.50000000       4.33012676      -8.00000000       2388.06982      -1.07671034    
   2.50000000       4.33012676      -7.00000000       2388.06982      -1.07671034    
   3.01776695       3.93283010      -7.00000000       2388.06982      -1.07671034    
   3.01776695       3.93283010      -8.00000000       2388.06982      -1.07671034    
   2.50000000       4.33012676      -7.00000000       2656.75537      -1.02749467    
   2.50000000       4.33012676      -6.00000000       2656.75537      -1.02749467    
   3.01776695       3.93283010      -6.00000000       2656.75537      -1.02749467    
   3.01776695       3.93283010      -7.00000000       2656.75537      -1.02749467    
   2.50000000       4.33012676      -6.00000000       2928.80273     -0.971681535    
   2.50000000       4.33012676      -5.00000000       2928.80273     -0.971681535    
   3.01776695       3.93283010      -5.00000000       2928.80273     -0.971681535    
   3.01776695       3.93283010      -6.00000000       2928.80273     -0.971681535    
   2.50000000       4.33012676      -5.00000000       3235.61792     -0.913531899    
   2.50000000       4.33012676      -4.00000000       3235.61792     -0.913531899    
   3.01776695       3.93283010      -4.00000000       3235.61792     -0.913531899    
   3.01776695       3.93283010      -5.00000000       3235.61792     -0.913531899    
   2.50000000       4.33012676      -4.00000000       3603.52344     -0.857067287    
   2.50000000       4.33012676      -3.00000000       3603.52344     -0.857067287    
   3.01776695       3.93283010      -3.00000000       3603.52344     -0.857067287    
   3.01776695       3.93283010      -4.00000000       3603.52344     -0.857067287    
   2.50000000       4.33012676      -3.00000000       4060.56787     -0.806504726    
   2.50000000       4.33012676      -2.00000000       4060.56787     -0.806504726    
   3.01776695       3.93283010      -2.00000000       4060.56787     -0.806504726    
   3.01776695       3.93283010      -3.00000000       4060.56787     -0.806504726    
   2.50000000       4.33012676      -2.00000000       4639.30176     -0.766167343    
   2.50000000       4.33012676      -1.00000000       4639.30176     -0.766167343    
   3.01776695       3.93283010      -1.00000000       4639.30176     -0.766167343    
   3.01776695       3.93283010      -2.00000000       4639.30176     -0.766167343    
   2.50000000       4.33012676      -1.00000000       5382.84229     -0.740962803    
   2.50000000       4.33012676       0.00000000       5382.84229     -0.740962803    
   3.01776695       3.93283010       0.00000000       5382.84229     -0.740962803    
   3.01776695       3.93283010      -1.00000000       5382.84229     -0.740962803    
   3.01776695       3.93283010      -10.0000000       1862.50940      -1.10938513    
   3.01776695       3.93283010      -9.00000000       1862.50940      -1.10938513    
   3.53553391       3.53553391      -9.00000000       1862.50940      -1.10938513    
   3.53553391       3.53553391      -10.0000000       1862.50940      -1.10938513    
   3.01776695       3.93283010      -9.00000000       2415.12378      -1.10694432    
   3.01776695       3.93283010      -8.00000000       2415.12378      -1.10694432    
   3.53553391       3.53553391      -8.00000000       2415.12378      -1.10694432    
   3.53553391       3.53553391      -9.00000000       2415.12378      -1.10694432    
   3.01776695       3.93283010      -8.00000000       2781.52930      -1.07068777    
   3.01776695       3.93283010      -7.00000000       2781.52930      -1.07068777    
   3.53553391       3.53553391      -7.00000000       2781.52930      -1.07068777    
   3.53553391       3.53553391      -8.00000000       2781.52930      -1.07068777    
   3.01776695       3.93283010      -7.00000000       3098.72119      -1.02159095    
   3.01776695       3.93283010      -6.00000000       3098.72119      -1.02159095    
   3.53553391       3.53553391      -6.00000000       3098.72119      -1.02159095    
   3.53553391       3.53553391      -7.00000000       3098.72119      -1.02159095    
   3.01776695       3.93283010      -6.00000000       3420.16040     -0.965844214    
   3.01776695       3.93283010      -5.00000000       3420.16040     -0.965844214    
   3.53553391       3.53553391      -5.00000000       3420.16040     -0.965844214    
   3.53553391       3.53553391      -6.00000000       3420.16040     -0.965844214    
   3.01776695       3.93283010      -5.00000000       3782.65576     -0.907804012    
   3.01776695       3.93283010      -4.00000000       3782.65576     -0.907804012    
   3.53553391       3.53553391      -4.00000000       3782.65576     -0.907804012    
   3.53553391       3.53553391      -5.00000000       3782.65576     -0.907804012    
   3.01776695       3.93283010      -4.00000000       4217.13281     -0.851555407    
   3.01776695       3.93283010      -3.00000000       4217.13281     -0.851555407    
   3.53553391       3.53553391      -3.00000000       4217.13281     -0.851555407    
   3.53553391       3.53553391      -4.00000000       4217.13281     -0.851555407    
   3.01776695       3.93283010      -3.00000000       4756.58252     -0.801330447    
   3.01776695       3.93283010      -2.00000000       4756.58252     -0.801330447    
   3.53553391       3.53553391      -2.00000000       4756.58252     -0.801330447    
   3.53553391       3.53553391      -3.00000000       4756.58252     -0.801330447    
   3.01776695       3.93283010      -2.00000000       5439.11230     -0.761443377    
   3.01776695       3.93283010      -1.00000000       5439.11230     -0.761443377    
   3.53553391       3.53553391      -1.00000000       5439.11230     -0.761443377    
   3.53553391       3.53553391      -2.00000000       5439.11230     -0.761443377    
   3.01776695       3.93283010      -1.00000000       6315.86816     -0.736797333    
   3.01776695       3.93283010       0.00000000       6315.86816     -0.736797333    
   3.53553391       3.53553391       0.00000000       6315.86816     -0.736797333    
   3.53553391       3.53553391      -1.00000000       6315.86816     -0.736797333    
   1.29409504       4.82962894      -10.0000000       941.363037      -1.12167704    
   1.29409504       4.82962894      -9.00000000       941.363037      -1.12167704    
   1.89704800       4.57987785      -9.00000000       941.363037      -1.12167704    
   1.89704800       4.57987785      -10.0000000       941.363037      -1.12167704    
   1.29409504       4.82962894      -9.00000000       1215.37720      -1.11682129    
   1.29409504       4.82962894      -8.00000000       1215.37720      -1.11682129    
   1.89704800       4.57987785      -8.00000000       1215.37720      -1.11682129    
   1.89704800       4.57987785      -9.00000000       1215.37720      -1.11682129    
   1.29409504       4.82962894      -8.00000000       1395.79578      -1.07992554    
   1.29409504       4.82962894      -7.00000000       1395.79578      -1.07992554    
   1.89704800       4.57987785      -7.00000000       1395.79578      -1.07992554    
   1.89704800       4.57987785      -8.00000000       1395.79578      -1.07992554    
   1.29409504       4.82962894      -7.00000000       1551.70386      -1.03065324    
   1.29409504       4.82962894      -6.00000000       1551.70386      -1.03065324    
   1.89704800       4.57987785      -6.00000000       1551.70386      -1.03065324    
   1.89704800       4.57987785      -7.00000000       1551.70386      -1.03065324    
   1.29409504       4.82962894      -6.00000000       1709.48596     -0.974811316    
   1.29409504       4.82962894      -5.00000000       1709.48596     -0.974811316    
   1.89704800       4.57987785      -5.00000000       1709.48596     -0.974811316    
   1.89704800       4.57987785      -6.00000000       1709.48596     -0.974811316    
   1.29409504       4.82962894      -5.00000000       1887.44165     -0.916607261    
   1.29409504       4.82962894      -4.00000000       1887.44165     -0.916607261    
   1.89704800       4.57987785      -4.00000000       1887.44165     -0.916607261    
   1.89704800       4.57987785      -5.00000000       1887.44165     -0.916607261    
   1.29409504       4.82962894      -4.00000000       2100.87866     -0.860032260    
   1.29409504       4.82962894      -3.00000000       2100.87866     -0.860032260    
   1.89704800       4.57987785      -3.00000000       2100.87866     -0.860032260    