 VARIABLES="X" "Y" "Z" "abs(p) (Pa)" "angle(p) (rad)"
ZONE N=   1080,E =     600, F=FEPOINT, ET=QUADRILATERAL
   4.82962894       1.29409504      -10.0000000       536.740295      -1.57069123    
   4.82962894       1.29409504      -9.00000000       536.740295      -1.57069123    
   4.91481400      0.647047520      -9.00000000       536.740295      -1.57069123    
   4.91481400      0.647047520      -10.0000000       536.740295      -1.57069123    
   4.82962894       1.29409504      -9.00000000       674.293152      -1.57070506    
   4.82962894       1.29409504      -8.00000000       674.293152      -1.57070506    
   4.91481400      0.647047520      -8.00000000       674.293152      -1.57070506    
   4.91481400      0.647047520      -9.00000000       674.293152      -1.57070506    
   4.82962894       1.29409504      -8.00000000       752.045105      -1.57071042    
   4.82962894       1.29409504      -7.00000000       752.045105      -1.57071042    
   4.91481400      0.647047520      -7.00000000       752.045105      -1.57071042    
   4.91481400      0.647047520      -8.00000000       752.045105      -1.57071042    
   4.82962894       1.29409504      -7.00000000       804.463928      -1.57071340    
   4.82962894       1.29409504      -6.00000000       804.463928      -1.57071340    
   4.91481400      0.647047520      -6.00000000       804.463928      -1.57071340    
   4.91481400      0.647047520      -7.00000000       804.463928      -1.57071340    
   4.82962894       1.29409504      -6.00000000       841.819641      -1.57071507    
   4.82962894       1.29409504      -5.00000000       841.819641      -1.57071507    
   4.91481400      0.647047520      -5.00000000       841.819641      -1.57071507    
   4.91481400      0.647047520      -6.00000000       841.819641      -1.57071507    
   4.82962894       1.29409504      -5.00000000       869.263000      -1.57071626    
   4.82962894       1.29409504      -4.00000000       869.263000      -1.57071626    
   4.91481400      0.647047520      -4.00000000       869.263000      -1.57071626    
   4.91481400      0.647047520      -5.00000000       869.263000      -1.57071626    
   4.82962894       1.29409504      -4.00000000       889.608765      -1.57071686    
   4.82962894       1.29409504      -3.00000000       889.608765      -1.57071686    
   4.91481400      0.647047520      -3.00000000       889.608765      -1.57071686    
   4.91481400      0.647047520      -4.00000000       889.608765      -1.57071686    
   4.82962894       1.29409504      -3.00000000       904.323914      -1.57071733    
   4.82962894       1.29409504      -2.00000000       904.323914      -1.57071733    
   4.91481400      0.647047520      -2.00000000       904.323914      -1.57071733    
   4.91481400      0.647047520      -3.00000000       904.323914      -1.57071733    
   4.82962894       1.29409504      -2.00000000       914.647705      -1.57071745    
   4.82962894       1.29409504      -1.00000000       914.647705      -1.57071745    
   4.91481400      0.647047520      -1.00000000       914.647705      -1.57071745    
   4.91481400      0.647047520      -2.00000000       914.647705      -1.57071745    
   4.82962894       1.29409504      -1.00000000       921.290344      -1.57071757    
   4.82962894       1.29409504       0.00000000       921.290344      -1.57071757    
   4.91481400      0.647047520       0.00000000       921.290344      -1.57071757    
   4.91481400      0.647047520      -1.00000000       921.290344      -1.57071757    
   4.91481400      0.647047520      -10.0000000       544.830139      -1.57069111    
   4.91481400      0.647047520      -9.00000000       544.830139      -1.57069111    
   5.00000000       0.00000000      -9.00000000       544.830139      -1.57069111    
   5.00000000       0.00000000      -10.0000000       544.830139      -1.57069111    
   4.91481400      0.647047520      -9.00000000       684.617249      -1.57070494    
   4.91481400      0.647047520      -8.00000000       684.617249      -1.57070494    
   5.00000000       0.00000000      -8.00000000       684.617249      -1.57070494    
   5.00000000       0.00000000      -9.00000000       684.617249      -1.57070494    
   4.91481400      0.647047520      -8.00000000       763.657654      -1.57071030    
   4.91481400      0.647047520      -7.00000000       763.657654      -1.57071030    
   5.00000000       0.00000000      -7.00000000       763.657654      -1.57071030    
   5.00000000       0.00000000      -8.00000000       763.657654      -1.57071030    
   4.91481400      0.647047520      -7.00000000       816.945679      -1.57071316    
   4.91481400      0.647047520      -6.00000000       816.945679      -1.57071316    
   5.00000000       0.00000000      -6.00000000       816.945679      -1.57071316    
   5.00000000       0.00000000      -7.00000000       816.945679      -1.57071316    
   4.91481400      0.647047520      -6.00000000       854.922729      -1.57071495    
   4.91481400      0.647047520      -5.00000000       854.922729      -1.57071495    
   5.00000000       0.00000000      -5.00000000       854.922729      -1.57071495    
   5.00000000       0.00000000      -6.00000000       854.922729      -1.57071495    
   4.91481400      0.647047520      -5.00000000       882.820740      -1.57071614    
   4.91481400      0.647047520      -4.00000000       882.820740      -1.57071614    
   5.00000000       0.00000000      -4.00000000       882.820740      -1.57071614    
   5.00000000       0.00000000      -5.00000000       882.820740      -1.57071614    
   4.91481400      0.647047520      -4.00000000       903.504333      -1.57071686    
   4.91481400      0.647047520      -3.00000000       903.504333      -1.57071686    
   5.00000000       0.00000000      -3.00000000       903.504333      -1.57071686    
   5.00000000       0.00000000      -4.00000000       903.504333      -1.57071686    
   4.91481400      0.647047520      -3.00000000       918.463135      -1.57071722    
   4.91481400      0.647047520      -2.00000000       918.463135      -1.57071722    
   5.00000000       0.00000000      -2.00000000       918.463135      -1.57071722    
   5.00000000       0.00000000      -3.00000000       918.463135      -1.57071722    
   4.91481400      0.647047520      -2.00000000       928.959717      -1.57071745    
   4.91481400      0.647047520      -1.00000000       928.959717      -1.57071745    
   5.00000000       0.00000000      -1.00000000       928.959717      -1.57071745    
   5.00000000       0.00000000      -2.00000000       928.959717      -1.57071745    
   4.91481400      0.647047520      -1.00000000       935.719543      -1.57071745    
   4.91481400      0.647047520       0.00000000       935.719543      -1.57071745    
   5.00000000       0.00000000       0.00000000       935.719543      -1.57071745    
   5.00000000       0.00000000      -1.00000000       935.719543      -1.57071745    
   4.33012676       2.50000000      -10.0000000       492.072968      -1.57069147    
   4.33012676       2.50000000      -9.00000000       492.072968      -1.57069147    
   4.57987785       1.89704800      -9.00000000       492.072968      -1.57069147    
   4.57987785       1.89704800      -10.0000000       492.072968      -1.57069147    
   4.33012676       2.50000000      -9.00000000       618.018372      -1.57070518    
   4.33012676       2.50000000      -8.00000000       618.018372      -1.57070518    
   4.57987785       1.89704800      -8.00000000       618.018372      -1.57070518    
   4.57987785       1.89704800      -9.00000000       618.018372      -1.57070518    
   4.33012676       2.50000000      -8.00000000       689.181274      -1.57071054    
   4.33012676       2.50000000      -7.00000000       689.181274      -1.57071054    
   4.57987785       1.89704800      -7.00000000       689.181274      -1.57071054    
   4.57987785       1.89704800      -8.00000000       689.181274      -1.57071054    
   4.33012676       2.50000000      -7.00000000       737.159546      -1.57071340    
   4.33012676       2.50000000      -6.00000000       737.159546      -1.57071340    
   4.57987785       1.89704800      -6.00000000       737.159546      -1.57071340    
   4.57987785       1.89704800      -7.00000000       737.159546      -1.57071340    
   4.33012676       2.50000000      -6.00000000       771.348633      -1.57071519    
   4.33012676       2.50000000      -5.00000000       771.348633      -1.57071519    
   4.57987785       1.89704800      -5.00000000       771.348633      -1.57071519    
   4.57987785       1.89704800      -6.00000000       771.348633      -1.57071519    
   4.33012676       2.50000000      -5.00000000       796.467590      -1.57071638    
   4.33012676       2.50000000      -4.00000000       796.467590      -1.57071638    
   4.57987785       1.89704800      -4.00000000       796.467590      -1.57071638    
   4.57987785       1.89704800      -5.00000000       796.467590      -1.57071638    
   4.33012676       2.50000000      -4.00000000       815.089478      -1.57071698    
   4.33012676       2.50000000      -3.00000000       815.089478      -1.57071698    
   4.57987785       1.89704800      -3.00000000       815.089478      -1.57071698    
   4.57987785       1.89704800      -4.00000000       815.089478      -1.57071698    
   4.33012676       2.50000000      -3.00000000       828.555847      -1.57071745    
   4.33012676       2.50000000      -2.00000000       828.555847      -1.57071745    
   4.57987785       1.89704800      -2.00000000       828.555847      -1.57071745    
   4.57987785       1.89704800      -3.00000000       828.555847      -1.57071745    
   4.33012676       2.50000000      -2.00000000       838.006409      -1.57071757    
   4.33012676       2.50000000      -1.00000000       838.006409      -1.57071757    
   4.57987785       1.89704800      -1.00000000       838.006409      -1.57071757    
   4.57987785       1.89704800      -2.00000000       838.006409      -1.57071757    
   4.33012676       2.50000000      -1.00000000       844.076355      -1.57071769    
   4.33012676       2.50000000       0.00000000       844.076355      -1.57071769    
   4.57987785       1.89704800       0.00000000       844.076355      -1.57071769    
   4.57987785       1.89704800      -1.00000000       844.076355      -1.57071769    
   4.57987785       1.89704800      -10.0000000       515.790955      -1.57069087    
   4.57987785       1.89704800      -9.00000000       515.790955      -1.57069087    
   4.82962894       1.29409504      -9.00000000       515.790955      -1.57069087    
   4.82962894       1.29409504      -10.0000000       515.790955      -1.57069087    
   4.57987785       1.89704800      -9.00000000       648.286194      -1.57070470    
   4.57987785       1.89704800      -8.00000000       648.286194      -1.57070470    
   4.82962894       1.29409504      -8.00000000       648.286194      -1.57070470    
   4.82962894       1.29409504      -9.00000000       648.286194      -1.57070470    
   4.57987785       1.89704800      -8.00000000       723.229248      -1.57071018    
   4.57987785       1.89704800      -7.00000000       723.229248      -1.57071018    
   4.82962894       1.29409504      -7.00000000       723.229248      -1.57071018    
   4.82962894       1.29409504      -8.00000000       723.229248      -1.57071018    
   4.57987785       1.89704800      -7.00000000       773.754028      -1.57071316    
   4.57987785       1.89704800      -6.00000000       773.754028      -1.57071316    
   4.82962894       1.29409504      -6.00000000       773.754028      -1.57071316    
   4.82962894       1.29409504      -7.00000000       773.754028      -1.57071316    
   4.57987785       1.89704800      -6.00000000       809.763977      -1.57071495    
   4.57987785       1.89704800      -5.00000000       809.763977      -1.57071495    
   4.82962894       1.29409504      -5.00000000       809.763977      -1.57071495    
   4.82962894       1.29409504      -6.00000000       809.763977      -1.57071495    
   4.57987785       1.89704800      -5.00000000       836.215698      -1.57071602    
   4.57987785       1.89704800      -4.00000000       836.215698      -1.57071602    
   4.82962894       1.29409504      -4.00000000       836.215698      -1.57071602    
   4.82962894       1.29409504      -5.00000000       836.215698      -1.57071602    
   4.57987785       1.89704800      -4.00000000       855.825806      -1.57071674    
   4.57987785       1.89704800      -3.00000000       855.825806      -1.57071674    
   4.82962894       1.29409504      -3.00000000       855.825806      -1.57071674    
   4.82962894       1.29409504      -4.00000000       855.825806      -1.57071674    
   4.57987785       1.89704800      -3.00000000       870.009888      -1.57071722    
   4.57987785       1.89704800      -2.00000000       870.009888      -1.57071722    
   4.82962894       1.29409504      -2.00000000       870.009888      -1.57071722    
   4.82962894       1.29409504      -3.00000000       870.009888      -1.57071722    
   4.57987785       1.89704800      -2.00000000       879.963074      -1.57071733    
   4.57987785       1.89704800      -1.00000000       879.963074      -1.57071733    
   4.82962894       1.29409504      -1.00000000       879.963074      -1.57071733    
   4.82962894       1.29409504      -2.00000000       879.963074      -1.57071733    
   4.57987785       1.89704800      -1.00000000       886.381348      -1.57071745    
   4.57987785       1.89704800       0.00000000       886.381348      -1.57071745    
   4.82962894       1.29409504       0.00000000       886.381348      -1.57071745    
   4.82962894       1.29409504      -1.00000000       886.381348      -1.57071745    
   3.53553391       3.53553391      -10.0000000       413.871155      -1.57069170    
   3.53553391       3.53553391      -9.00000000       413.871155      -1.57069170    
   3.93283010       3.01776695      -9.00000000       413.871155      -1.57069170    
   3.93283010       3.01776695      -10.0000000       413.871155      -1.57069170    
   3.53553391       3.53553391      -9.00000000       519.624512      -1.57070529    
   3.53553391       3.53553391      -8.00000000       519.624512      -1.57070529    
   3.93283010       3.01776695      -8.00000000       519.624512      -1.57070529    
   3.93283010       3.01776695      -9.00000000       519.624512      -1.57070529    
   3.53553391       3.53553391      -8.00000000       579.351624      -1.57071066    
   3.53553391       3.53553391      -7.00000000       579.351624      -1.57071066    
   3.93283010       3.01776695      -7.00000000       579.351624      -1.57071066    
   3.93283010       3.01776695      -8.00000000       579.351624      -1.57071066    
   3.53553391       3.53553391      -7.00000000       619.618774      -1.57071352    
   3.53553391       3.53553391      -6.00000000       619.618774      -1.57071352    
   3.93283010       3.01776695      -6.00000000       619.618774      -1.57071352    
   3.93283010       3.01776695      -7.00000000       619.618774      -1.57071352    
   3.53553391       3.53553391      -6.00000000       648.311890      -1.57071531    
   3.53553391       3.53553391      -5.00000000       648.311890      -1.57071531    
   3.93283010       3.01776695      -5.00000000       648.311890      -1.57071531    
   3.93283010       3.01776695      -6.00000000       648.311890      -1.57071531    
   3.53553391       3.53553391      -5.00000000       669.393127      -1.57071638    
   3.53553391       3.53553391      -4.00000000       669.393127      -1.57071638    
   3.93283010       3.01776695      -4.00000000       669.393127      -1.57071638    
   3.93283010       3.01776695      -5.00000000       669.393127      -1.57071638    
   3.53553391       3.53553391      -4.00000000       685.022461      -1.57071710    
   3.53553391       3.53553391      -3.00000000       685.022461      -1.57071710    
   3.93283010       3.01776695      -3.00000000       685.022461      -1.57071710    
   3.93283010       3.01776695      -4.00000000       685.022461      -1.57071710    
   3.53553391       3.53553391      -3.00000000       696.323975      -1.57071745    
   3.53553391       3.53553391      -2.00000000       696.323975      -1.57071745    
   3.93283010       3.01776695      -2.00000000       696.323975      -1.57071745    
   3.93283010       3.01776695      -3.00000000       696.323975      -1.57071745    
   3.53553391       3.53553391      -2.00000000       704.255371      -1.57071769    
   3.53553391       3.53553391      -1.00000000       704.255371      -1.57071769    
   3.93283010       3.01776695      -1.00000000       704.255371      -1.57071769    
   3.93283010       3.01776695      -2.00000000       704.255371      -1.57071769    
   3.53553391       3.53553391      -1.00000000       709.340271      -1.57071781    
   3.53553391       3.53553391       0.00000000       709.340271      -1.57071781    
   3.93283010       3.01776695       0.00000000       709.340271      -1.57071781    
   3.93283010       3.01776695      -1.00000000       709.340271      -1.57071781    
   3.93283010       3.01776695      -10.0000000       451.600433      -1.57069063    
   3.93283010       3.01776695      -9.00000000       451.600433      -1.57069063    
   4.33012676       2.50000000      -9.00000000       451.600433      -1.57069063    
   4.33012676       2.50000000      -10.0000000       451.600433      -1.57069063    
   3.93283010       3.01776695      -9.00000000       567.775574      -1.57070470    
   3.93283010       3.01776695      -8.00000000       567.775574      -1.57070470    
   4.33012676       2.50000000      -8.00000000       567.775574      -1.57070470    
   4.33012676       2.50000000      -9.00000000       567.775574      -1.57070470    
   3.93283010       3.01776695      -8.00000000       633.513672      -1.57071006    
   3.93283010       3.01776695      -7.00000000       633.513672      -1.57071006    
   4.33012676       2.50000000      -7.00000000       633.513672      -1.57071006    
   4.33012676       2.50000000      -8.00000000       633.513672      -1.57071006    
   3.93283010       3.01776695      -7.00000000       677.832764      -1.57071304    
   3.93283010       3.01776695      -6.00000000       677.832764      -1.57071304    
   4.33012676       2.50000000      -6.00000000       677.832764      -1.57071304    
   4.33012676       2.50000000      -7.00000000       677.832764      -1.57071304    
   3.93283010       3.01776695      -6.00000000       709.419922      -1.57071483    
   3.93283010       3.01776695      -5.00000000       709.419922      -1.57071483    
   4.33012676       2.50000000      -5.00000000       709.419922      -1.57071483    
   4.33012676       2.50000000      -6.00000000       709.419922      -1.57071483    
   3.93283010       3.01776695      -5.00000000       732.623413      -1.57071590    
   3.93283010       3.01776695      -4.00000000       732.623413      -1.57071590    
   4.33012676       2.50000000      -4.00000000       732.623413      -1.57071590    
   4.33012676       2.50000000      -5.00000000       732.623413      -1.57071590    
   3.93283010       3.01776695      -4.00000000       749.825134      -1.57071662    
   3.93283010       3.01776695      -3.00000000       749.825134      -1.57071662    
   4.33012676       2.50000000      -3.00000000       749.825134      -1.57071662    
   4.33012676       2.50000000      -4.00000000       749.825134      -1.57071662    
   3.93283010       3.01776695      -3.00000000       762.268921      -1.57071710    
   3.93283010       3.01776695      -2.00000000       762.268921      -1.57071710    
   4.33012676       2.50000000      -2.00000000       762.268921      -1.57071710    
   4.33012676       2.50000000      -3.00000000       762.268921      -1.57071710    
   3.93283010       3.01776695      -2.00000000       770.999329      -1.57071733    
   3.93283010       3.01776695      -1.00000000       770.999329      -1.57071733    
   4.33012676       2.50000000      -1.00000000       770.999329      -1.57071733    
   4.33012676       2.50000000      -2.00000000       770.999329      -1.57071733    
   3.93283010       3.01776695      -1.00000000       776.638306      -1.57071733    
   3.93283010       3.01776695       0.00000000       776.638306      -1.57071733    
   4.33012676       2.50000000       0.00000000       776.638306      -1.57071733    
   4.33012676       2.50000000      -1.00000000       776.638306      -1.57071733    
   2.50000000       4.33012676      -10.0000000       307.464752      -1.57069206    
   2.50000000       4.33012676      -9.00000000       307.464752      -1.57069206    
   3.01776695       3.93283010      -9.00000000       307.464752      -1.57069206    
   3.01776695       3.93283010      -10.0000000       307.464752      -1.57069206    
   2.50000000       4.33012676      -9.00000000       385.820038      -1.57070553    
   2.50000000       4.33012676      -8.00000000       385.820038      -1.57070553    
   3.01776695       3.93283010      -8.00000000       385.820038      -1.57070553    
   3.01776695       3.93283010      -9.00000000       385.820038      -1.57070553    
   2.50000000       4.33012676      -8.00000000       430.039398      -1.57071090    
   2.50000000       4.33012676      -7.00000000       430.039398      -1.57071090    
   3.01776695       3.93283010      -7.00000000       430.039398      -1.57071090    
   3.01776695       3.93283010      -8.00000000       430.039398      -1.57071090    
   2.50000000       4.33012676      -7.00000000       459.852020      -1.57071376    
   2.50000000       4.33012676      -6.00000000       459.852020      -1.57071376    
   3.01776695       3.93283010      -6.00000000       459.852020      -1.57071376    
   3.01776695       3.93283010      -7.00000000       459.852020      -1.57071376    
   2.50000000       4.33012676      -6.00000000       481.092743      -1.57071555    
   2.50000000       4.33012676      -5.00000000       481.092743      -1.57071555    
   3.01776695       3.93283010      -5.00000000       481.092743      -1.57071555    
   3.01776695       3.93283010      -6.00000000       481.092743      -1.57071555    
   2.50000000       4.33012676      -5.00000000       496.701111      -1.57071662    
   2.50000000       4.33012676      -4.00000000       496.701111      -1.57071662    
   3.01776695       3.93283010      -4.00000000       496.701111      -1.57071662    
   3.01776695       3.93283010      -5.00000000       496.701111      -1.57071662    
   2.50000000       4.33012676      -4.00000000       508.272247      -1.57071733    
   2.50000000       4.33012676      -3.00000000       508.272247      -1.57071733    
   3.01776695       3.93283010      -3.00000000       508.272247      -1.57071733    
   3.01776695       3.93283010      -4.00000000       508.272247      -1.57071733    
   2.50000000       4.33012676      -3.00000000       516.638123      -1.57071769    
   2.50000000       4.33012676      -2.00000000       516.638123      -1.57071769    
   3.01776695       3.93283010      -2.00000000       516.638123      -1.57071769    
   3.01776695       3.93283010      -3.00000000       516.638123      -1.57071769    
   2.50000000       4.33012676      -2.00000000       522.510193      -1.57071793    
   2.50000000       4.33012676      -1.00000000       522.510193      -1.57071793    
   3.01776695       3.93283010      -1.00000000       522.510193      -1.57071793    
   3.01776695       3.93283010      -2.00000000       522.510193      -1.57071793    
   2.50000000       4.33012676      -1.00000000       526.264038      -1.57071793    
   2.50000000       4.33012676       0.00000000       526.264038      -1.57071793    
   3.01776695       3.93283010       0.00000000       526.264038      -1.57071793    
   3.01776695       3.93283010      -1.00000000       526.264038      -1.57071793    
   3.01776695       3.93283010      -10.0000000       356.635406      -1.57069039    
   3.01776695       3.93283010      -9.00000000       356.635406      -1.57069039    
   3.53553391       3.53553391      -9.00000000       356.635406      -1.57069039    
   3.53553391       3.53553391      -10.0000000       356.635406      -1.57069039    
   3.01776695       3.93283010      -9.00000000       448.571533      -1.57070446    
   3.01776695       3.93283010      -8.00000000       448.571533      -1.57070446    
   3.53553391       3.53553391      -8.00000000       448.571533      -1.57070446    
   3.53553391       3.53553391      -9.00000000       448.571533      -1.57070446    
   3.01776695       3.93283010      -8.00000000       500.624603      -1.57070994    
   3.01776695       3.93283010      -7.00000000       500.624603      -1.57070994    
   3.53553391       3.53553391      -7.00000000       500.624603      -1.57070994    
   3.53553391       3.53553391      -8.00000000       500.624603      -1.57070994    
   3.01776695       3.93283010      -7.00000000       535.717285      -1.57071292    
   3.01776695       3.93283010      -6.00000000       535.717285      -1.57071292    
   3.53553391       3.53553391      -6.00000000       535.717285      -1.57071292    
   3.53553391       3.53553391      -7.00000000       535.717285      -1.57071292    
   3.01776695       3.93283010      -6.00000000       560.730835      -1.57071471    
   3.01776695       3.93283010      -5.00000000       560.730835      -1.57071471    
   3.53553391       3.53553391      -5.00000000       560.730835      -1.57071471    
   3.53553391       3.53553391      -6.00000000       560.730835      -1.57071471    
   3.01776695       3.93283010      -5.00000000       579.104126      -1.57071579    
   3.01776695       3.93283010      -4.00000000       579.104126      -1.57071579    
   3.53553391       3.53553391      -4.00000000       579.104126      -1.57071579    
   3.53553391       3.53553391      -5.00000000       579.104126      -1.57071579    
   3.01776695       3.93283010      -4.00000000       592.725037      -1.57071650    
   3.01776695       3.93283010      -3.00000000       592.725037      -1.57071650    
   3.53553391       3.53553391      -3.00000000       592.725037      -1.57071650    
   3.53553391       3.53553391      -4.00000000       592.725037      -1.57071650    
   3.01776695       3.93283010      -3.00000000       602.578430      -1.57071686    
   3.01776695       3.93283010      -2.00000000       602.578430      -1.57071686    
   3.53553391       3.53553391      -2.00000000       602.578430      -1.57071686    
   3.53553391       3.53553391      -3.00000000       602.578430      -1.57071686    
   3.01776695       3.93283010      -2.00000000       609.492737      -1.57071710    
   3.01776695       3.93283010      -1.00000000       609.492737      -1.57071710    
   3.53553391       3.53553391      -1.00000000       609.492737      -1.57071710    
   3.53553391       3.53553391      -2.00000000       609.492737      -1.57071710    
   3.01776695       3.93283010      -1.00000000       613.967590      -1.57071722    
   3.01776695       3.93283010       0.00000000       613.967590      -1.57071722    
   3.53553391       3.53553391       0.00000000       613.967590      -1.57071722    
   3.53553391       3.53553391      -1.00000000       613.967590      -1.57071722    
   1.29409504       4.82962894      -10.0000000       180.105194      -1.57069290    
   1.29409504       4.82962894      -9.00000000       180.105194      -1.57069290    
   1.89704800       4.57987785      -9.00000000       180.105194      -1.57069290    
   1.89704800       4.57987785      -10.0000000       180.105194      -1.57069290    
   1.29409504       4.82962894      -9.00000000       225.722656      -1.57070625    
   1.29409504       4.82962894      -8.00000000       225.722656      -1.57070625    
   1.89704800       4.57987785      -8.00000000       225.722656      -1.57070625    
   1.89704800       4.57987785      -9.00000000       225.722656      -1.57070625    
   1.29409504       4.82962894      -8.00000000       251.420731      -1.57071149    
   1.29409504       4.82962894      -7.00000000       251.420731      -1.57071149    
   1.89704800       4.57987785      -7.00000000       251.420731      -1.57071149    
   1.89704800       4.57987785      -8.00000000       251.420731      -1.57071149    
   1.29409504       4.82962894      -7.00000000       268.747345      -1.57071412    
   1.29409504       4.82962894      -6.00000000       268.747345      -1.57071412    
   1.89704800       4.57987785      -6.00000000       268.747345      -1.57071412    
   1.89704800       4.57987785      -7.00000000       268.747345      -1.57071412    
   1.29409504       4.82962894      -6.00000000       281.088959      -1.57071590    
   1.29409504       4.82962894      -5.00000000       281.088959      -1.57071590    
   1.89704800       4.57987785      -5.00000000       281.088959      -1.57071590    
   1.89704800       4.57987785      -6.00000000       281.088959      -1.57071590    
   1.29409504       4.82962894      -5.00000000       290.158905      -1.57071698    
   1.29409504       4.82962894      -4.00000000       290.158905      -1.57071698    
   1.89704800       4.57987785      -4.00000000       290.158905      -1.57071698    
   1.89704800       4.57987785      -5.00000000       290.158905      -1.57071698    
   1.29409504       4.82962894      -4.00000000       296.884064      -1.57071781    
   1.29409504       4.82962894      -3.00000000       296.884064      -1.57071781    
   1.89704800       4.57987785      -3.00000000       296.884064      -1.57071781    