 VARIABLES="X" "Y" "Z" "abs(p) (Pa)" "angle(p) (rad)"
ZONE N=   1080,E =     600, F=FEPOINT, ET=QUADRILATERAL
   4.82962894       1.29409504      -10.0000000       537.700684      -2.18688703    
   4.82962894       1.29409504      -9.00000000       537.700684      -2.18688703    
   4.91481400      0.647047520      -9.00000000       537.700684      -2.18688703    
   4.91481400      0.647047520      -10.0000000       537.700684      -2.18688703    
   4.82962894       1.29409504      -9.00000000       757.370972      -2.25249076    
   4.82962894       1.29409504      -8.00000000       757.370972      -2.25249076    
   4.91481400      0.647047520      -8.00000000       757.370972      -2.25249076    
   4.91481400      0.647047520      -9.00000000       757.370972      -2.25249076    
   4.82962894       1.29409504      -8.00000000       1046.39917      -2.27590775    
   4.82962894       1.29409504      -7.00000000       1046.39917      -2.27590775    
   4.91481400      0.647047520      -7.00000000       1046.39917      -2.27590775    
   4.91481400      0.647047520      -8.00000000       1046.39917      -2.27590775    
   4.82962894       1.29409504      -7.00000000       1439.97144      -2.28651810    
   4.82962894       1.29409504      -6.00000000       1439.97144      -2.28651810    
   4.91481400      0.647047520      -6.00000000       1439.97144      -2.28651810    
   4.91481400      0.647047520      -7.00000000       1439.97144      -2.28651810    
   4.82962894       1.29409504      -6.00000000       1979.16345      -2.29120016    
   4.82962894       1.29409504      -5.00000000       1979.16345      -2.29120016    
   4.91481400      0.647047520      -5.00000000       1979.16345      -2.29120016    
   4.91481400      0.647047520      -6.00000000       1979.16345      -2.29120016    
   4.82962894       1.29409504      -5.00000000       2719.90820      -2.29305387    
   4.82962894       1.29409504      -4.00000000       2719.90820      -2.29305387    
   4.91481400      0.647047520      -4.00000000       2719.90820      -2.29305387    
   4.91481400      0.647047520      -5.00000000       2719.90820      -2.29305387    
   4.82962894       1.29409504      -4.00000000       3737.30957      -2.29336214    
   4.82962894       1.29409504      -3.00000000       3737.30957      -2.29336214    
   4.91481400      0.647047520      -3.00000000       3737.30957      -2.29336214    
   4.91481400      0.647047520      -4.00000000       3737.30957      -2.29336214    
   4.82962894       1.29409504      -3.00000000       5134.41016      -2.29246306    
   4.82962894       1.29409504      -2.00000000       5134.41016      -2.29246306    
   4.91481400      0.647047520      -2.00000000       5134.41016      -2.29246306    
   4.91481400      0.647047520      -3.00000000       5134.41016      -2.29246306    
   4.82962894       1.29409504      -2.00000000       7052.64893      -2.29079652    
   4.82962894       1.29409504      -1.00000000       7052.64893      -2.29079652    
   4.91481400      0.647047520      -1.00000000       7052.64893      -2.29079652    
   4.91481400      0.647047520      -2.00000000       7052.64893      -2.29079652    
   4.82962894       1.29409504      -1.00000000       9677.01270      -2.28756952    
   4.82962894       1.29409504       0.00000000       9677.01270      -2.28756952    
   4.91481400      0.647047520       0.00000000       9677.01270      -2.28756952    
   4.91481400      0.647047520      -1.00000000       9677.01270      -2.28756952    
   4.91481400      0.647047520      -10.0000000       557.079712      -2.17962623    
   4.91481400      0.647047520      -9.00000000       557.079712      -2.17962623    
   5.00000000       0.00000000      -9.00000000       557.079712      -2.17962623    
   5.00000000       0.00000000      -10.0000000       557.079712      -2.17962623    
   4.91481400      0.647047520      -9.00000000       787.334778      -2.24422646    
   4.91481400      0.647047520      -8.00000000       787.334778      -2.24422646    
   5.00000000       0.00000000      -8.00000000       787.334778      -2.24422646    
   5.00000000       0.00000000      -9.00000000       787.334778      -2.24422646    
   4.91481400      0.647047520      -8.00000000       1088.92944      -2.26730251    
   4.91481400      0.647047520      -7.00000000       1088.92944      -2.26730251    
   5.00000000       0.00000000      -7.00000000       1088.92944      -2.26730251    
   5.00000000       0.00000000      -8.00000000       1088.92944      -2.26730251    
   4.91481400      0.647047520      -7.00000000       1499.11768      -2.27777648    
   4.91481400      0.647047520      -6.00000000       1499.11768      -2.27777648    
   5.00000000       0.00000000      -6.00000000       1499.11768      -2.27777648    
   5.00000000       0.00000000      -7.00000000       1499.11768      -2.27777648    
   4.91481400      0.647047520      -6.00000000       2060.79956      -2.28241968    
   4.91481400      0.647047520      -5.00000000       2060.79956      -2.28241968    
   5.00000000       0.00000000      -5.00000000       2060.79956      -2.28241968    
   5.00000000       0.00000000      -6.00000000       2060.79956      -2.28241968    
   4.91481400      0.647047520      -5.00000000       2832.27637      -2.28427362    
   4.91481400      0.647047520      -4.00000000       2832.27637      -2.28427362    
   5.00000000       0.00000000      -4.00000000       2832.27637      -2.28427362    
   5.00000000       0.00000000      -5.00000000       2832.27637      -2.28427362    
   4.91481400      0.647047520      -4.00000000       3891.71997      -2.28461218    
   4.91481400      0.647047520      -3.00000000       3891.71997      -2.28461218    
   5.00000000       0.00000000      -3.00000000       3891.71997      -2.28461218    
   5.00000000       0.00000000      -4.00000000       3891.71997      -2.28461218    
   4.91481400      0.647047520      -3.00000000       5346.38574      -2.28377843    
   4.91481400      0.647047520      -2.00000000       5346.38574      -2.28377843    
   5.00000000       0.00000000      -2.00000000       5346.38574      -2.28377843    
   5.00000000       0.00000000      -3.00000000       5346.38574      -2.28377843    
   4.91481400      0.647047520      -2.00000000       7343.40186      -2.28220153    
   4.91481400      0.647047520      -1.00000000       7343.40186      -2.28220153    
   5.00000000       0.00000000      -1.00000000       7343.40186      -2.28220153    
   5.00000000       0.00000000      -2.00000000       7343.40186      -2.28220153    
   4.91481400      0.647047520      -1.00000000       10075.0020      -2.27917027    
   4.91481400      0.647047520       0.00000000       10075.0020      -2.27917027    
   5.00000000       0.00000000       0.00000000       10075.0020      -2.27917027    
   5.00000000       0.00000000      -1.00000000       10075.0020      -2.27917027    
   4.33012676       2.50000000      -10.0000000       443.308350      -2.21769524    
   4.33012676       2.50000000      -9.00000000       443.308350      -2.21769524    
   4.57987785       1.89704800      -9.00000000       443.308350      -2.21769524    
   4.57987785       1.89704800      -10.0000000       443.308350      -2.21769524    
   4.33012676       2.50000000      -9.00000000       610.914978      -2.28865194    
   4.33012676       2.50000000      -8.00000000       610.914978      -2.28865194    
   4.57987785       1.89704800      -8.00000000       610.914978      -2.28865194    
   4.57987785       1.89704800      -9.00000000       610.914978      -2.28865194    
   4.33012676       2.50000000      -8.00000000       838.483521      -2.31407547    
   4.33012676       2.50000000      -7.00000000       838.483521      -2.31407547    
   4.57987785       1.89704800      -7.00000000       838.483521      -2.31407547    
   4.57987785       1.89704800      -8.00000000       838.483521      -2.31407547    
   4.33012676       2.50000000      -7.00000000       1150.79932      -2.32549262    
   4.33012676       2.50000000      -6.00000000       1150.79932      -2.32549262    
   4.57987785       1.89704800      -6.00000000       1150.79932      -2.32549262    
   4.57987785       1.89704800      -7.00000000       1150.79932      -2.32549262    
   4.33012676       2.50000000      -6.00000000       1580.01636      -2.33040237    
   4.33012676       2.50000000      -5.00000000       1580.01636      -2.33040237    
   4.57987785       1.89704800      -5.00000000       1580.01636      -2.33040237    
   4.57987785       1.89704800      -6.00000000       1580.01636      -2.33040237    
   4.33012676       2.50000000      -5.00000000       2170.46655      -2.33224416    
   4.33012676       2.50000000      -4.00000000       2170.46655      -2.33224416    
   4.57987785       1.89704800      -4.00000000       2170.46655      -2.33224416    
   4.57987785       1.89704800      -5.00000000       2170.46655      -2.33224416    
   4.33012676       2.50000000      -4.00000000       2982.16211      -2.33235002    
   4.33012676       2.50000000      -3.00000000       2982.16211      -2.33235002    
   4.57987785       1.89704800      -3.00000000       2982.16211      -2.33235002    
   4.57987785       1.89704800      -4.00000000       2982.16211      -2.33235002    
   4.33012676       2.50000000      -3.00000000       4097.73877      -2.33105063    
   4.33012676       2.50000000      -2.00000000       4097.73877      -2.33105063    
   4.57987785       1.89704800      -2.00000000       4097.73877      -2.33105063    
   4.57987785       1.89704800      -3.00000000       4097.73877      -2.33105063    
   4.33012676       2.50000000      -2.00000000       5630.71240      -2.32882214    
   4.33012676       2.50000000      -1.00000000       5630.71240      -2.32882214    
   4.57987785       1.89704800      -1.00000000       5630.71240      -2.32882214    
   4.57987785       1.89704800      -2.00000000       5630.71240      -2.32882214    
   4.33012676       2.50000000      -1.00000000       7731.84033      -2.32441735    
   4.33012676       2.50000000       0.00000000       7731.84033      -2.32441735    
   4.57987785       1.89704800       0.00000000       7731.84033      -2.32441735    
   4.57987785       1.89704800      -1.00000000       7731.84033      -2.32441735    
   4.57987785       1.89704800      -10.0000000       495.994415      -2.19808841    
   4.57987785       1.89704800      -9.00000000       495.994415      -2.19808841    
   4.82962894       1.29409504      -9.00000000       495.994415      -2.19808841    
   4.82962894       1.29409504      -10.0000000       495.994415      -2.19808841    
   4.57987785       1.89704800      -9.00000000       692.322266      -2.26593876    
   4.57987785       1.89704800      -8.00000000       692.322266      -2.26593876    
   4.82962894       1.29409504      -8.00000000       692.322266      -2.26593876    
   4.82962894       1.29409504      -9.00000000       692.322266      -2.26593876    
   4.57987785       1.89704800      -8.00000000       954.014526      -2.29020357    
   4.57987785       1.89704800      -7.00000000       954.014526      -2.29020357    
   4.82962894       1.29409504      -7.00000000       954.014526      -2.29020357    
   4.82962894       1.29409504      -8.00000000       954.014526      -2.29020357    
   4.57987785       1.89704800      -7.00000000       1311.46338      -2.30114794    
   4.57987785       1.89704800      -6.00000000       1311.46338      -2.30114794    
   4.82962894       1.29409504      -6.00000000       1311.46338      -2.30114794    
   4.82962894       1.29409504      -7.00000000       1311.46338      -2.30114794    
   4.57987785       1.89704800      -6.00000000       1801.77368      -2.30592775    
   4.57987785       1.89704800      -5.00000000       1801.77368      -2.30592775    
   4.82962894       1.29409504      -5.00000000       1801.77368      -2.30592775    
   4.82962894       1.29409504      -6.00000000       1801.77368      -2.30592775    
   4.57987785       1.89704800      -5.00000000       2475.71289      -2.30777979    
   4.57987785       1.89704800      -4.00000000       2475.71289      -2.30777979    
   4.82962894       1.29409504      -4.00000000       2475.71289      -2.30777979    
   4.82962894       1.29409504      -5.00000000       2475.71289      -2.30777979    
   4.57987785       1.89704800      -4.00000000       3401.63354      -2.30800676    
   4.57987785       1.89704800      -3.00000000       3401.63354      -2.30800676    
   4.82962894       1.29409504      -3.00000000       3401.63354      -2.30800676    
   4.82962894       1.29409504      -4.00000000       3401.63354      -2.30800676    
   4.57987785       1.89704800      -3.00000000       4673.60205      -2.30695415    
   4.57987785       1.89704800      -2.00000000       4673.60205      -2.30695415    
   4.82962894       1.29409504      -2.00000000       4673.60205      -2.30695415    
   4.82962894       1.29409504      -3.00000000       4673.60205      -2.30695415    
   4.57987785       1.89704800      -2.00000000       6420.61426      -2.30506229    
   4.57987785       1.89704800      -1.00000000       6420.61426      -2.30506229    
   4.82962894       1.29409504      -1.00000000       6420.61426      -2.30506229    
   4.82962894       1.29409504      -2.00000000       6420.61426      -2.30506229    
   4.57987785       1.89704800      -1.00000000       8813.08105      -2.30138326    
   4.57987785       1.89704800       0.00000000       8813.08105      -2.30138326    
   4.82962894       1.29409504       0.00000000       8813.08105      -2.30138326    
   4.82962894       1.29409504      -1.00000000       8813.08105      -2.30138326    
   3.53553391       3.53553391      -10.0000000       300.700806      -2.25190282    
   3.53553391       3.53553391      -9.00000000       300.700806      -2.25190282    
   3.93283010       3.01776695      -9.00000000       300.700806      -2.25190282    
   3.93283010       3.01776695      -10.0000000       300.700806      -2.25190282    
   3.53553391       3.53553391      -9.00000000       389.626343      -2.33072710    
   3.53553391       3.53553391      -8.00000000       389.626343      -2.33072710    
   3.93283010       3.01776695      -8.00000000       389.626343      -2.33072710    
   3.93283010       3.01776695      -9.00000000       389.626343      -2.33072710    
   3.53553391       3.53553391      -8.00000000       524.272339      -2.36018515    
   3.53553391       3.53553391      -7.00000000       524.272339      -2.36018515    
   3.93283010       3.01776695      -7.00000000       524.272339      -2.36018515    
   3.93283010       3.01776695      -8.00000000       524.272339      -2.36018515    
   3.53553391       3.53553391      -7.00000000       713.725281      -2.37331557    
   3.53553391       3.53553391      -6.00000000       713.725281      -2.37331557    
   3.93283010       3.01776695      -6.00000000       713.725281      -2.37331557    
   3.93283010       3.01776695      -7.00000000       713.725281      -2.37331557    
   3.53553391       3.53553391      -6.00000000       976.657104      -2.37861776    
   3.53553391       3.53553391      -5.00000000       976.657104      -2.37861776    
   3.93283010       3.01776695      -5.00000000       976.657104      -2.37861776    
   3.93283010       3.01776695      -6.00000000       976.657104      -2.37861776    
   3.53553391       3.53553391      -5.00000000       1339.87146      -2.38028717    
   3.53553391       3.53553391      -4.00000000       1339.87146      -2.38028717    
   3.93283010       3.01776695      -4.00000000       1339.87146      -2.38028717    
   3.93283010       3.01776695      -5.00000000       1339.87146      -2.38028717    
   3.53553391       3.53553391      -4.00000000       1840.56506      -2.37974977    
   3.53553391       3.53553391      -3.00000000       1840.56506      -2.37974977    
   3.93283010       3.01776695      -3.00000000       1840.56506      -2.37974977    
   3.93283010       3.01776695      -4.00000000       1840.56506      -2.37974977    
   3.53553391       3.53553391      -3.00000000       2530.54736      -2.37727737    
   3.53553391       3.53553391      -2.00000000       2530.54736      -2.37727737    
   3.93283010       3.01776695      -2.00000000       2530.54736      -2.37727737    
   3.93283010       3.01776695      -3.00000000       2530.54736      -2.37727737    
   3.53553391       3.53553391      -2.00000000       3481.18701      -2.37345028    
   3.53553391       3.53553391      -1.00000000       3481.18701      -2.37345028    
   3.93283010       3.01776695      -1.00000000       3481.18701      -2.37345028    
   3.93283010       3.01776695      -2.00000000       3481.18701      -2.37345028    
   3.53553391       3.53553391      -1.00000000       4792.14307      -2.36580801    
   3.53553391       3.53553391       0.00000000       4792.14307      -2.36580801    
   3.93283010       3.01776695       0.00000000       4792.14307      -2.36580801    
   3.93283010       3.01776695      -1.00000000       4792.14307      -2.36580801    
   3.93283010       3.01776695      -10.0000000       371.859497      -2.23169637    
   3.93283010       3.01776695      -9.00000000       371.859497      -2.23169637    
   4.33012676       2.50000000      -9.00000000       371.859497      -2.23169637    
   4.33012676       2.50000000      -10.0000000       371.859497      -2.23169637    
   3.93283010       3.01776695      -9.00000000       499.454834      -2.30656362    
   3.93283010       3.01776695      -8.00000000       499.454834      -2.30656362    
   4.33012676       2.50000000      -8.00000000       499.454834      -2.30656362    
   4.33012676       2.50000000      -9.00000000       499.454834      -2.30656362    
   3.93283010       3.01776695      -8.00000000       680.140930      -2.33386207    
   3.93283010       3.01776695      -7.00000000       680.140930      -2.33386207    
   4.33012676       2.50000000      -7.00000000       680.140930      -2.33386207    
   4.33012676       2.50000000      -8.00000000       680.140930      -2.33386207    
   3.93283010       3.01776695      -7.00000000       930.508301      -2.34604859    
   3.93283010       3.01776695      -6.00000000       930.508301      -2.34604859    
   4.33012676       2.50000000      -6.00000000       930.508301      -2.34604859    
   4.33012676       2.50000000      -7.00000000       930.508301      -2.34604859    
   3.93283010       3.01776695      -6.00000000       1275.89734      -2.35115623    
   3.93283010       3.01776695      -5.00000000       1275.89734      -2.35115623    
   4.33012676       2.50000000      -5.00000000       1275.89734      -2.35115623    
   4.33012676       2.50000000      -6.00000000       1275.89734      -2.35115623    
   3.93283010       3.01776695      -5.00000000       1751.79358      -2.35294938    
   3.93283010       3.01776695      -4.00000000       1751.79358      -2.35294938    
   4.33012676       2.50000000      -4.00000000       1751.79358      -2.35294938    
   4.33012676       2.50000000      -5.00000000       1751.79358      -2.35294938    
   3.93283010       3.01776695      -4.00000000       2406.64062      -2.35279822    
   3.93283010       3.01776695      -3.00000000       2406.64062      -2.35279822    
   4.33012676       2.50000000      -3.00000000       2406.64062      -2.35279822    
   4.33012676       2.50000000      -4.00000000       2406.64062      -2.35279822    
   3.93283010       3.01776695      -3.00000000       3307.67578      -2.35104656    
   3.93283010       3.01776695      -2.00000000       3307.67578      -2.35104656    
   4.33012676       2.50000000      -2.00000000       3307.67578      -2.35104656    
   4.33012676       2.50000000      -3.00000000       3307.67578      -2.35104656    
   3.93283010       3.01776695      -2.00000000       4547.12842      -2.34817982    
   3.93283010       3.01776695      -1.00000000       4547.12842      -2.34817982    
   4.33012676       2.50000000      -1.00000000       4547.12842      -2.34817982    
   4.33012676       2.50000000      -2.00000000       4547.12842      -2.34817982    
   3.93283010       3.01776695      -1.00000000       6250.91992      -2.34253263    
   3.93283010       3.01776695       0.00000000       6250.91992      -2.34253263    
   4.33012676       2.50000000       0.00000000       6250.91992      -2.34253263    
   4.33012676       2.50000000      -1.00000000       6250.91992      -2.34253263    
   2.50000000       4.33012676      -10.0000000       151.670135      -2.18713546    
   2.50000000       4.33012676      -9.00000000       151.670135      -2.18713546    
   3.01776695       3.93283010      -9.00000000       151.670135      -2.18713546    
   3.01776695       3.93283010      -10.0000000       151.670135      -2.18713546    
   2.50000000       4.33012676      -9.00000000       159.060379      -2.22041607    
   2.50000000       4.33012676      -8.00000000       159.060379      -2.22041607    
   3.01776695       3.93283010      -8.00000000       159.060379      -2.22041607    
   3.01776695       3.93283010      -9.00000000       159.060379      -2.22041607    
   2.50000000       4.33012676      -8.00000000       196.662781      -2.23674989    
   2.50000000       4.33012676      -7.00000000       196.662781      -2.23674989    
   3.01776695       3.93283010      -7.00000000       196.662781      -2.23674989    
   3.01776695       3.93283010      -8.00000000       196.662781      -2.23674989    
   2.50000000       4.33012676      -7.00000000       257.785828      -2.24402428    
   2.50000000       4.33012676      -6.00000000       257.785828      -2.24402428    
   3.01776695       3.93283010      -6.00000000       257.785828      -2.24402428    
   3.01776695       3.93283010      -7.00000000       257.785828      -2.24402428    
   2.50000000       4.33012676      -6.00000000       347.218201      -2.24519253    
   2.50000000       4.33012676      -5.00000000       347.218201      -2.24519253    
   3.01776695       3.93283010      -5.00000000       347.218201      -2.24519253    
   3.01776695       3.93283010      -6.00000000       347.218201      -2.24519253    
   2.50000000       4.33012676      -5.00000000       473.539917      -2.24352169    
   2.50000000       4.33012676      -4.00000000       473.539917      -2.24352169    
   3.01776695       3.93283010      -4.00000000       473.539917      -2.24352169    
   3.01776695       3.93283010      -5.00000000       473.539917      -2.24352169    
   2.50000000       4.33012676      -4.00000000       650.354858      -2.23946357    
   2.50000000       4.33012676      -3.00000000       650.354858      -2.23946357    
   3.01776695       3.93283010      -3.00000000       650.354858      -2.23946357    
   3.01776695       3.93283010      -4.00000000       650.354858      -2.23946357    
   2.50000000       4.33012676      -3.00000000       897.821899      -2.23244381    
   2.50000000       4.33012676      -2.00000000       897.821899      -2.23244381    
   3.01776695       3.93283010      -2.00000000       897.821899      -2.23244381    
   3.01776695       3.93283010      -3.00000000       897.821899      -2.23244381    
   2.50000000       4.33012676      -2.00000000       1244.06848      -2.22328234    
   2.50000000       4.33012676      -1.00000000       1244.06848      -2.22328234    
   3.01776695       3.93283010      -1.00000000       1244.06848      -2.22328234    
   3.01776695       3.93283010      -2.00000000       1244.06848      -2.22328234    
   2.50000000       4.33012676      -1.00000000       1739.35120      -2.20598292    
   2.50000000       4.33012676       0.00000000       1739.35120      -2.20598292    
   3.01776695       3.93283010       0.00000000       1739.35120      -2.20598292    
   3.01776695       3.93283010      -1.00000000       1739.35120      -2.20598292    
   3.01776695       3.93283010      -10.0000000       220.490402      -2.23173547    
   3.01776695       3.93283010      -9.00000000       220.490402      -2.23173547    
   3.53553391       3.53553391      -9.00000000       220.490402      -2.23173547    
   3.53553391       3.53553391      -10.0000000       220.490402      -2.23173547    
   3.01776695       3.93283010      -9.00000000       264.424896      -2.30398917    
   3.01776695       3.93283010      -8.00000000       264.424896      -2.30398917    
   3.53553391       3.53553391      -8.00000000       264.424896      -2.30398917    
   3.53553391       3.53553391      -9.00000000       264.424896      -2.30398917    
   3.01776695       3.93283010      -8.00000000       346.156036      -2.33369875    
   3.01776695       3.93283010      -7.00000000       346.156036      -2.33369875    
   3.53553391       3.53553391      -7.00000000       346.156036      -2.33369875    
   3.53553391       3.53553391      -8.00000000       346.156036      -2.33369875    
   3.01776695       3.93283010      -7.00000000       465.739410      -2.34704423    
   3.01776695       3.93283010      -6.00000000       465.739410      -2.34704423    
   3.53553391       3.53553391      -6.00000000       465.739410      -2.34704423    
   3.53553391       3.53553391      -7.00000000       465.739410      -2.34704423    
   3.01776695       3.93283010      -6.00000000       634.209534      -2.35197949    
   3.01776695       3.93283010      -5.00000000       634.209534      -2.35197949    
   3.53553391       3.53553391      -5.00000000       634.209534      -2.35197949    
   3.53553391       3.53553391      -6.00000000       634.209534      -2.35197949    
   3.01776695       3.93283010      -5.00000000       868.420776      -2.35300469    
   3.01776695       3.93283010      -4.00000000       868.420776      -2.35300469    
   3.53553391       3.53553391      -4.00000000       868.420776      -2.35300469    
   3.53553391       3.53553391      -5.00000000       868.420776      -2.35300469    
   3.01776695       3.93283010      -4.00000000       1192.60901      -2.35142088    
   3.01776695       3.93283010      -3.00000000       1192.60901      -2.35142088    
   3.53553391       3.53553391      -3.00000000       1192.60901      -2.35142088    
   3.53553391       3.53553391      -4.00000000       1192.60901      -2.35142088    
   3.01776695       3.93283010      -3.00000000       1641.35718      -2.34744000    
   3.01776695       3.93283010      -2.00000000       1641.35718      -2.34744000    
   3.53553391       3.53553391      -2.00000000       1641.35718      -2.34744000    
   3.53553391       3.53553391      -3.00000000       1641.35718      -2.34744000    
   3.01776695       3.93283010      -2.00000000       2262.30420      -2.34166265    
   3.01776695       3.93283010      -1.00000000       2262.30420      -2.34166265    
   3.53553391       3.53553391      -1.00000000       2262.30420      -2.34166265    
   3.53553391       3.53553391      -2.00000000       2262.30420      -2.34166265    
   3.01776695       3.93283010      -1.00000000       3128.24487      -2.33051920    
   3.01776695       3.93283010       0.00000000       3128.24487      -2.33051920    
   3.53553391       3.53553391       0.00000000       3128.24487      -2.33051920    
   3.53553391       3.53553391      -1.00000000       3128.24487      -2.33051920    
   1.29409504       4.82962894      -10.0000000       64.5191345      -1.36479783    
   1.29409504       4.82962894      -9.00000000       64.5191345      -1.36479783    
   1.89704800       4.57987785      -9.00000000       64.5191345      -1.36479783    
   1.89704800       4.57987785      -10.0000000       64.5191345      -1.36479783    
   1.29409504       4.82962894      -9.00000000       89.9064026     -0.635745525    
   1.29409504       4.82962894      -8.00000000       89.9064026     -0.635745525    
   1.89704800       4.57987785      -8.00000000       89.9064026     -0.635745525    
   1.89704800       4.57987785      -9.00000000       89.9064026     -0.635745525    
   1.29409504       4.82962894      -8.00000000       136.333481     -0.449828237    
   1.29409504       4.82962894      -7.00000000       136.333481     -0.449828237    
   1.89704800       4.57987785      -7.00000000       136.333481     -0.449828237    
   1.89704800       4.57987785      -8.00000000       136.333481     -0.449828237    
   1.29409504       4.82962894      -7.00000000       196.549942     -0.386414945    
   1.29409504       4.82962894      -6.00000000       196.549942     -0.386414945    
   1.89704800       4.57987785      -6.00000000       196.549942     -0.386414945    
   1.89704800       4.57987785      -7.00000000       196.549942     -0.386414945    
   1.29409504       4.82962894      -6.00000000       276.552216     -0.364584088    
   1.29409504       4.82962894      -5.00000000       276.552216     -0.364584088    
   1.89704800       4.57987785      -5.00000000       276.552216     -0.364584088    
   1.89704800       4.57987785      -6.00000000       276.552216     -0.364584088    
   1.29409504       4.82962894      -5.00000000       384.847076     -0.358461797    
   1.29409504       4.82962894      -4.00000000       384.847076     -0.358461797    
   1.89704800       4.57987785      -4.00000000       384.847076     -0.358461797    
   1.89704800       4.57987785      -5.00000000       384.847076     -0.358461797    
   1.29409504       4.82962894      -4.00000000       532.844604     -0.360972196    
   1.29409504       4.82962894      -3.00000000       532.844604     -0.360972196    
   1.89704800       4.57987785      -3.00000000       532.844604     -0.360972196    