 VARIABLES="X" "Y" "Z" "abs(p) (Pa)" "angle(p) (rad)"
ZONE N=   1080,E =     600, F=FEPOINT, ET=QUADRILATERAL
   4.82962894       1.29409504      -10.0000000       812.500000      -3.02977085    
   4.82962894       1.29409504      -9.00000000       812.500000      -3.02977085    
   4.91481400      0.647047520      -9.00000000       812.500000      -3.02977085    
   4.91481400      0.647047520      -10.0000000       812.500000      -3.02977085    
   4.82962894       1.29409504      -9.00000000       1120.07471      -3.02414846    
   4.82962894       1.29409504      -8.00000000       1120.07471      -3.02414846    
   4.91481400      0.647047520      -8.00000000       1120.07471      -3.02414846    
   4.91481400      0.647047520      -9.00000000       1120.07471      -3.02414846    
   4.82962894       1.29409504      -8.00000000       1463.08301       2.99608994    
   4.82962894       1.29409504      -7.00000000       1463.08301       2.99608994    
   4.91481400      0.647047520      -7.00000000       1463.08301       2.99608994    
   4.91481400      0.647047520      -8.00000000       1463.08301       2.99608994    
   4.82962894       1.29409504      -7.00000000       1984.21606       2.77353597    
   4.82962894       1.29409504      -6.00000000       1984.21606       2.77353597    
   4.91481400      0.647047520      -6.00000000       1984.21606       2.77353597    
   4.91481400      0.647047520      -7.00000000       1984.21606       2.77353597    
   4.82962894       1.29409504      -6.00000000       2685.29370       2.63518620    
   4.82962894       1.29409504      -5.00000000       2685.29370       2.63518620    
   4.91481400      0.647047520      -5.00000000       2685.29370       2.63518620    
   4.91481400      0.647047520      -6.00000000       2685.29370       2.63518620    
   4.82962894       1.29409504      -5.00000000       3547.41943       2.56076932    
   4.82962894       1.29409504      -4.00000000       3547.41943       2.56076932    
   4.91481400      0.647047520      -4.00000000       3547.41943       2.56076932    
   4.91481400      0.647047520      -5.00000000       3547.41943       2.56076932    
   4.82962894       1.29409504      -4.00000000       4571.92871       2.52731276    
   4.82962894       1.29409504      -3.00000000       4571.92871       2.52731276    
   4.91481400      0.647047520      -3.00000000       4571.92871       2.52731276    
   4.91481400      0.647047520      -4.00000000       4571.92871       2.52731276    
   4.82962894       1.29409504      -3.00000000       5786.68066       2.51866388    
   4.82962894       1.29409504      -2.00000000       5786.68066       2.51866388    
   4.91481400      0.647047520      -2.00000000       5786.68066       2.51866388    
   4.91481400      0.647047520      -3.00000000       5786.68066       2.51866388    
   4.82962894       1.29409504      -2.00000000       7244.94287       2.52382040    
   4.82962894       1.29409504      -1.00000000       7244.94287       2.52382040    
   4.91481400      0.647047520      -1.00000000       7244.94287       2.52382040    
   4.91481400      0.647047520      -2.00000000       7244.94287       2.52382040    
   4.82962894       1.29409504      -1.00000000       9037.16992       2.53303719    
   4.82962894       1.29409504       0.00000000       9037.16992       2.53303719    
   4.91481400      0.647047520       0.00000000       9037.16992       2.53303719    
   4.91481400      0.647047520      -1.00000000       9037.16992       2.53303719    
   4.91481400      0.647047520      -10.0000000       298.148590      -2.85084271    
   4.91481400      0.647047520      -9.00000000       298.148590      -2.85084271    
   5.00000000       0.00000000      -9.00000000       298.148590      -2.85084271    
   5.00000000       0.00000000      -10.0000000       298.148590      -2.85084271    
   4.91481400      0.647047520      -9.00000000       402.460938      -2.95070839    
   4.91481400      0.647047520      -8.00000000       402.460938      -2.95070839    
   5.00000000       0.00000000      -8.00000000       402.460938      -2.95070839    
   5.00000000       0.00000000      -9.00000000       402.460938      -2.95070839    
   4.91481400      0.647047520      -8.00000000       520.060242       2.99388790    
   4.91481400      0.647047520      -7.00000000       520.060242       2.99388790    
   5.00000000       0.00000000      -7.00000000       520.060242       2.99388790    
   5.00000000       0.00000000      -8.00000000       520.060242       2.99388790    
   4.91481400      0.647047520      -7.00000000       717.397583       2.73164988    
   4.91481400      0.647047520      -6.00000000       717.397583       2.73164988    
   5.00000000       0.00000000      -6.00000000       717.397583       2.73164988    
   5.00000000       0.00000000      -7.00000000       717.397583       2.73164988    
   4.91481400      0.647047520      -6.00000000       986.820435       2.57875752    
   4.91481400      0.647047520      -5.00000000       986.820435       2.57875752    
   5.00000000       0.00000000      -5.00000000       986.820435       2.57875752    
   5.00000000       0.00000000      -6.00000000       986.820435       2.57875752    
   4.91481400      0.647047520      -5.00000000       1315.35193       2.50036955    
   4.91481400      0.647047520      -4.00000000       1315.35193       2.50036955    
   5.00000000       0.00000000      -4.00000000       1315.35193       2.50036955    
   5.00000000       0.00000000      -5.00000000       1315.35193       2.50036955    
   4.91481400      0.647047520      -4.00000000       1701.48047       2.46629143    
   4.91481400      0.647047520      -3.00000000       1701.48047       2.46629143    
   5.00000000       0.00000000      -3.00000000       1701.48047       2.46629143    
   5.00000000       0.00000000      -4.00000000       1701.48047       2.46629143    
   4.91481400      0.647047520      -3.00000000       2153.28027       2.45878625    
   4.91481400      0.647047520      -2.00000000       2153.28027       2.45878625    
   5.00000000       0.00000000      -2.00000000       2153.28027       2.45878625    
   5.00000000       0.00000000      -3.00000000       2153.28027       2.45878625    
   4.91481400      0.647047520      -2.00000000       2690.02417       2.46604538    
   4.91481400      0.647047520      -1.00000000       2690.02417       2.46604538    
   5.00000000       0.00000000      -1.00000000       2690.02417       2.46604538    
   5.00000000       0.00000000      -2.00000000       2690.02417       2.46604538    
   4.91481400      0.647047520      -1.00000000       3341.72461       2.47870922    
   4.91481400      0.647047520       0.00000000       3341.72461       2.47870922    
   5.00000000       0.00000000       0.00000000       3341.72461       2.47870922    
   5.00000000       0.00000000      -1.00000000       3341.72461       2.47870922    
   4.33012676       2.50000000      -10.0000000       1863.77026      -3.00129819    
   4.33012676       2.50000000      -9.00000000       1863.77026      -3.00129819    
   4.57987785       1.89704800      -9.00000000       1863.77026      -3.00129819    
   4.57987785       1.89704800      -10.0000000       1863.77026      -3.00129819    
   4.33012676       2.50000000      -9.00000000       2565.36743      -3.01263785    
   4.33012676       2.50000000      -8.00000000       2565.36743      -3.01263785    
   4.57987785       1.89704800      -8.00000000       2565.36743      -3.01263785    
   4.57987785       1.89704800      -9.00000000       2565.36743      -3.01263785    
   4.33012676       2.50000000      -8.00000000       3346.52002       2.99574828    
   4.33012676       2.50000000      -7.00000000       3346.52002       2.99574828    
   4.57987785       1.89704800      -7.00000000       3346.52002       2.99574828    
   4.57987785       1.89704800      -8.00000000       3346.52002       2.99574828    
   4.33012676       2.50000000      -7.00000000       4550.07520       2.76693416    
   4.33012676       2.50000000      -6.00000000       4550.07520       2.76693416    
   4.57987785       1.89704800      -6.00000000       4550.07520       2.76693416    
   4.57987785       1.89704800      -7.00000000       4550.07520       2.76693416    
   4.33012676       2.50000000      -6.00000000       6173.08789       2.62617135    
   4.33012676       2.50000000      -5.00000000       6173.08789       2.62617135    
   4.57987785       1.89704800      -5.00000000       6173.08789       2.62617135    
   4.57987785       1.89704800      -6.00000000       6173.08789       2.62617135    
   4.33012676       2.50000000      -5.00000000       8166.43311       2.55104589    
   4.33012676       2.50000000      -4.00000000       8166.43311       2.55104589    
   4.57987785       1.89704800      -4.00000000       8166.43311       2.55104589    
   4.57987785       1.89704800      -5.00000000       8166.43311       2.55104589    
   4.33012676       2.50000000      -4.00000000       10531.1084       2.51746035    
   4.33012676       2.50000000      -3.00000000       10531.1084       2.51746035    
   4.57987785       1.89704800      -3.00000000       10531.1084       2.51746035    
   4.57987785       1.89704800      -4.00000000       10531.1084       2.51746035    
   4.33012676       2.50000000      -3.00000000       13329.0410       2.50899649    
   4.33012676       2.50000000      -2.00000000       13329.0410       2.50899649    
   4.57987785       1.89704800      -2.00000000       13329.0410       2.50899649    
   4.57987785       1.89704800      -3.00000000       13329.0410       2.50899649    
   4.33012676       2.50000000      -2.00000000       16682.4355       2.51450968    
   4.33012676       2.50000000      -1.00000000       16682.4355       2.51450968    
   4.57987785       1.89704800      -1.00000000       16682.4355       2.51450968    
   4.57987785       1.89704800      -2.00000000       16682.4355       2.51450968    
   4.33012676       2.50000000      -1.00000000       20796.0332       2.52431226    
   4.33012676       2.50000000       0.00000000       20796.0332       2.52431226    
   4.57987785       1.89704800       0.00000000       20796.0332       2.52431226    
   4.57987785       1.89704800      -1.00000000       20796.0332       2.52431226    
   4.57987785       1.89704800      -10.0000000       1383.08459      -2.95558548    
   4.57987785       1.89704800      -9.00000000       1383.08459      -2.95558548    
   4.82962894       1.29409504      -9.00000000       1383.08459      -2.95558548    
   4.82962894       1.29409504      -10.0000000       1383.08459      -2.95558548    
   4.57987785       1.89704800      -9.00000000       1896.33289      -2.99406338    
   4.57987785       1.89704800      -8.00000000       1896.33289      -2.99406338    
   4.82962894       1.29409504      -8.00000000       1896.33289      -2.99406338    
   4.82962894       1.29409504      -9.00000000       1896.33289      -2.99406338    
   4.57987785       1.89704800      -8.00000000       2467.75708       2.99519515    
   4.57987785       1.89704800      -7.00000000       2467.75708       2.99519515    
   4.82962894       1.29409504      -7.00000000       2467.75708       2.99519515    
   4.82962894       1.29409504      -8.00000000       2467.75708       2.99519515    
   4.57987785       1.89704800      -7.00000000       3369.40161       2.75631189    
   4.57987785       1.89704800      -6.00000000       3369.40161       2.75631189    
   4.82962894       1.29409504      -6.00000000       3369.40161       2.75631189    
   4.82962894       1.29409504      -7.00000000       3369.40161       2.75631189    
   4.57987785       1.89704800      -6.00000000       4589.90332       2.61175895    
   4.57987785       1.89704800      -5.00000000       4589.90332       2.61175895    
   4.82962894       1.29409504      -5.00000000       4589.90332       2.61175895    
   4.82962894       1.29409504      -6.00000000       4589.90332       2.61175895    
   4.57987785       1.89704800      -5.00000000       6085.79395       2.53556156    
   4.57987785       1.89704800      -4.00000000       6085.79395       2.53556156    
   4.82962894       1.29409504      -4.00000000       6085.79395       2.53556156    
   4.82962894       1.29409504      -5.00000000       6085.79395       2.53556156    
   4.57987785       1.89704800      -4.00000000       7855.37012       2.50179291    
   4.57987785       1.89704800      -3.00000000       7855.37012       2.50179291    
   4.82962894       1.29409504      -3.00000000       7855.37012       2.50179291    
   4.82962894       1.29409504      -4.00000000       7855.37012       2.50179291    
   4.57987785       1.89704800      -3.00000000       9942.13965       2.49362278    
   4.57987785       1.89704800      -2.00000000       9942.13965       2.49362278    
   4.82962894       1.29409504      -2.00000000       9942.13965       2.49362278    
   4.82962894       1.29409504      -3.00000000       9942.13965       2.49362278    
   4.57987785       1.89704800      -2.00000000       12436.6396       2.49969053    
   4.57987785       1.89704800      -1.00000000       12436.6396       2.49969053    
   4.82962894       1.29409504      -1.00000000       12436.6396       2.49969053    
   4.82962894       1.29409504      -2.00000000       12436.6396       2.49969053    
   4.57987785       1.89704800      -1.00000000       15487.3164       2.51040101    
   4.57987785       1.89704800       0.00000000       15487.3164       2.51040101    
   4.82962894       1.29409504       0.00000000       15487.3164       2.51040101    
   4.82962894       1.29409504      -1.00000000       15487.3164       2.51040101    
   3.53553391       3.53553391      -10.0000000       2788.45557      -2.99300051    
   3.53553391       3.53553391      -9.00000000       2788.45557      -2.99300051    
   3.93283010       3.01776695      -9.00000000       2788.45557      -2.99300051    
   3.93283010       3.01776695      -10.0000000       2788.45557      -2.99300051    
   3.53553391       3.53553391      -9.00000000       3835.93091      -3.00927496    
   3.53553391       3.53553391      -8.00000000       3835.93091      -3.00927496    
   3.93283010       3.01776695      -8.00000000       3835.93091      -3.00927496    
   3.93283010       3.01776695      -9.00000000       3835.93091      -3.00927496    
   3.53553391       3.53553391      -8.00000000       5001.89307       2.99564838    
   3.53553391       3.53553391      -7.00000000       5001.89307       2.99564838    
   3.93283010       3.01776695      -7.00000000       5001.89307       2.99564838    
   3.93283010       3.01776695      -8.00000000       5001.89307       2.99564838    
   3.53553391       3.53553391      -7.00000000       6805.91211       2.76500916    
   3.53553391       3.53553391      -6.00000000       6805.91211       2.76500916    
   3.93283010       3.01776695      -6.00000000       6805.91211       2.76500916    
   3.93283010       3.01776695      -7.00000000       6805.91211       2.76500916    
   3.53553391       3.53553391      -6.00000000       9240.33496       2.62355042    
   3.53553391       3.53553391      -5.00000000       9240.33496       2.62355042    
   3.93283010       3.01776695      -5.00000000       9240.33496       2.62355042    
   3.93283010       3.01776695      -6.00000000       9240.33496       2.62355042    
   3.53553391       3.53553391      -5.00000000       12229.1338       2.54822540    
   3.53553391       3.53553391      -4.00000000       12229.1338       2.54822540    
   3.93283010       3.01776695      -4.00000000       12229.1338       2.54822540    
   3.93283010       3.01776695      -5.00000000       12229.1338       2.54822540    
   3.53553391       3.53553391      -4.00000000       15772.8965       2.51460385    
   3.53553391       3.53553391      -3.00000000       15772.8965       2.51460385    
   3.93283010       3.01776695      -3.00000000       15772.8965       2.51460385    
   3.93283010       3.01776695      -4.00000000       15772.8965       2.51460385    
   3.53553391       3.53553391      -3.00000000       19963.3984       2.50619411    
   3.53553391       3.53553391      -2.00000000       19963.3984       2.50619411    
   3.93283010       3.01776695      -2.00000000       19963.3984       2.50619411    
   3.93283010       3.01776695      -3.00000000       19963.3984       2.50619411    
   3.53553391       3.53553391      -2.00000000       24983.4277       2.51180935    
   3.53553391       3.53553391      -1.00000000       24983.4277       2.51180935    
   3.93283010       3.01776695      -1.00000000       24983.4277       2.51180935    
   3.93283010       3.01776695      -2.00000000       24983.4277       2.51180935    
   3.53553391       3.53553391      -1.00000000       31138.1387       2.52177906    
   3.53553391       3.53553391       0.00000000       31138.1387       2.52177906    
   3.93283010       3.01776695       0.00000000       31138.1387       2.52177906    
   3.93283010       3.01776695      -1.00000000       31138.1387       2.52177906    
   3.93283010       3.01776695      -10.0000000       2375.60547      -2.96870852    
   3.93283010       3.01776695      -9.00000000       2375.60547      -2.96870852    
   4.33012676       2.50000000      -9.00000000       2375.60547      -2.96870852    
   4.33012676       2.50000000      -10.0000000       2375.60547      -2.96870852    
   3.93283010       3.01776695      -9.00000000       3261.40088      -2.99940991    
   3.93283010       3.01776695      -8.00000000       3261.40088      -2.99940991    
   4.33012676       2.50000000      -8.00000000       3261.40088      -2.99940991    
   4.33012676       2.50000000      -9.00000000       3261.40088      -2.99940991    
   3.93283010       3.01776695      -8.00000000       4247.28760       2.99535394    
   3.93283010       3.01776695      -7.00000000       4247.28760       2.99535394    
   4.33012676       2.50000000      -7.00000000       4247.28760       2.99535394    
   4.33012676       2.50000000      -8.00000000       4247.28760       2.99535394    
   3.93283010       3.01776695      -7.00000000       5792.04004       2.75936627    
   3.93283010       3.01776695      -6.00000000       5792.04004       2.75936627    
   4.33012676       2.50000000      -6.00000000       5792.04004       2.75936627    
   4.33012676       2.50000000      -7.00000000       5792.04004       2.75936627    
   3.93283010       3.01776695      -6.00000000       7880.80664       2.61589170    
   3.93283010       3.01776695      -5.00000000       7880.80664       2.61589170    
   4.33012676       2.50000000      -5.00000000       7880.80664       2.61589170    
   4.33012676       2.50000000      -6.00000000       7880.80664       2.61589170    
   3.93283010       3.01776695      -5.00000000       10442.4043       2.53999281    
   3.93283010       3.01776695      -4.00000000       10442.4043       2.53999281    
   4.33012676       2.50000000      -4.00000000       10442.4043       2.53999281    
   4.33012676       2.50000000      -5.00000000       10442.4043       2.53999281    
   3.93283010       3.01776695      -4.00000000       13475.1348       2.50627375    
   3.93283010       3.01776695      -3.00000000       13475.1348       2.50627375    
   4.33012676       2.50000000      -3.00000000       13475.1348       2.50627375    
   4.33012676       2.50000000      -4.00000000       13475.1348       2.50627375    
   3.93283010       3.01776695      -3.00000000       17054.9512       2.49802017    
   3.93283010       3.01776695      -2.00000000       17054.9512       2.49802017    
   4.33012676       2.50000000      -2.00000000       17054.9512       2.49802017    
   4.33012676       2.50000000      -3.00000000       17054.9512       2.49802017    
   3.93283010       3.01776695      -2.00000000       21337.4258       2.50393081    
   3.93283010       3.01776695      -1.00000000       21337.4258       2.50393081    
   4.33012676       2.50000000      -1.00000000       21337.4258       2.50393081    
   4.33012676       2.50000000      -2.00000000       21337.4258       2.50393081    
   3.93283010       3.01776695      -1.00000000       26579.3594       2.51438427    
   3.93283010       3.01776695       0.00000000       26579.3594       2.51438427    
   4.33012676       2.50000000       0.00000000       26579.3594       2.51438427    
   4.33012676       2.50000000      -1.00000000       26579.3594       2.51438427    
   2.50000000       4.33012676      -10.0000000       3523.21045      -2.98861265    
   2.50000000       4.33012676      -9.00000000       3523.21045      -2.98861265    
   3.01776695       3.93283010      -9.00000000       3523.21045      -2.98861265    
   3.01776695       3.93283010      -10.0000000       3523.21045      -2.98861265    
   2.50000000       4.33012676      -9.00000000       4845.10596      -3.00749588    
   2.50000000       4.33012676      -8.00000000       4845.10596      -3.00749588    
   3.01776695       3.93283010      -8.00000000       4845.10596      -3.00749588    
   3.01776695       3.93283010      -9.00000000       4845.10596      -3.00749588    
   2.50000000       4.33012676      -8.00000000       6316.39941       2.99559546    
   2.50000000       4.33012676      -7.00000000       6316.39941       2.99559546    
   3.01776695       3.93283010      -7.00000000       6316.39941       2.99559546    
   3.01776695       3.93283010      -8.00000000       6316.39941       2.99559546    
   2.50000000       4.33012676      -7.00000000       8597.94922       2.76399064    
   2.50000000       4.33012676      -6.00000000       8597.94922       2.76399064    
   3.01776695       3.93283010      -6.00000000       8597.94922       2.76399064    
   3.01776695       3.93283010      -7.00000000       8597.94922       2.76399064    
   2.50000000       4.33012676      -6.00000000       11677.9062       2.62216616    
   2.50000000       4.33012676      -5.00000000       11677.9062       2.62216616    
   3.01776695       3.93283010      -5.00000000       11677.9062       2.62216616    
   3.01776695       3.93283010      -6.00000000       11677.9062       2.62216616    
   2.50000000       4.33012676      -5.00000000       15458.4941       2.54673553    
   2.50000000       4.33012676      -4.00000000       15458.4941       2.54673553    
   3.01776695       3.93283010      -4.00000000       15458.4941       2.54673553    
   3.01776695       3.93283010      -5.00000000       15458.4941       2.54673553    
   2.50000000       4.33012676      -4.00000000       19939.8574       2.51309562    
   2.50000000       4.33012676      -3.00000000       19939.8574       2.51309562    
   3.01776695       3.93283010      -3.00000000       19939.8574       2.51309562    
   3.01776695       3.93283010      -4.00000000       19939.8574       2.51309562    
   2.50000000       4.33012676      -3.00000000       25237.3750       2.50471401    
   2.50000000       4.33012676      -2.00000000       25237.3750       2.50471401    
   3.01776695       3.93283010      -2.00000000       25237.3750       2.50471401    
   3.01776695       3.93283010      -3.00000000       25237.3750       2.50471401    
   2.50000000       4.33012676      -2.00000000       31581.9609       2.51038289    
   2.50000000       4.33012676      -1.00000000       31581.9609       2.51038289    
   3.01776695       3.93283010      -1.00000000       31581.9609       2.51038289    
   3.01776695       3.93283010      -2.00000000       31581.9609       2.51038289    
   2.50000000       4.33012676      -1.00000000       39358.3555       2.52044153    
   2.50000000       4.33012676       0.00000000       39358.3555       2.52044153    
   3.01776695       3.93283010       0.00000000       39358.3555       2.52044153    
   3.01776695       3.93283010      -1.00000000       39358.3555       2.52044153    
   3.01776695       3.93283010      -10.0000000       3206.40210      -2.97436833    
   3.01776695       3.93283010      -9.00000000       3206.40210      -2.97436833    
   3.53553391       3.53553391      -9.00000000       3206.40210      -2.97436833    
   3.53553391       3.53553391      -10.0000000       3206.40210      -2.97436833    
   3.01776695       3.93283010      -9.00000000       4404.24854      -3.00171137    
   3.01776695       3.93283010      -8.00000000       4404.24854      -3.00171137    
   3.53553391       3.53553391      -8.00000000       4404.24854      -3.00171137    
   3.53553391       3.53553391      -9.00000000       4404.24854      -3.00171137    
   3.01776695       3.93283010      -8.00000000       5737.36768       2.99542308    
   3.01776695       3.93283010      -7.00000000       5737.36768       2.99542308    
   3.53553391       3.53553391      -7.00000000       5737.36768       2.99542308    
   3.53553391       3.53553391      -8.00000000       5737.36768       2.99542308    
   3.01776695       3.93283010      -7.00000000       7819.97119       2.76068258    
   3.01776695       3.93283010      -6.00000000       7819.97119       2.76068258    
   3.53553391       3.53553391      -6.00000000       7819.97119       2.76068258    
   3.53553391       3.53553391      -7.00000000       7819.97119       2.76068258    
   3.01776695       3.93283010      -6.00000000       10634.6953       2.61767483    
   3.01776695       3.93283010      -5.00000000       10634.6953       2.61767483    
   3.53553391       3.53553391      -5.00000000       10634.6953       2.61767483    
   3.53553391       3.53553391      -6.00000000       10634.6953       2.61767483    
   3.01776695       3.93283010      -5.00000000       14087.4834       2.54190826    
   3.01776695       3.93283010      -4.00000000       14087.4834       2.54190826    
   3.53553391       3.53553391      -4.00000000       14087.4834       2.54190826    
   3.53553391       3.53553391      -5.00000000       14087.4834       2.54190826    
   3.01776695       3.93283010      -4.00000000       18176.7090       2.50821042    
   3.01776695       3.93283010      -3.00000000       18176.7090       2.50821042    
   3.53553391       3.53553391      -3.00000000       18176.7090       2.50821042    
   3.53553391       3.53553391      -4.00000000       18176.7090       2.50821042    
   3.01776695       3.93283010      -3.00000000       23005.6309       2.49992085    
   3.01776695       3.93283010      -2.00000000       23005.6309       2.49992085    
   3.53553391       3.53553391      -2.00000000       23005.6309       2.49992085    
   3.53553391       3.53553391      -3.00000000       23005.6309       2.49992085    
   3.01776695       3.93283010      -2.00000000       28784.2754       2.50576282    
   3.01776695       3.93283010      -1.00000000       28784.2754       2.50576282    
   3.53553391       3.53553391      -1.00000000       28784.2754       2.50576282    
   3.53553391       3.53553391      -2.00000000       28784.2754       2.50576282    
   3.01776695       3.93283010      -1.00000000       35860.2383       2.51610446    
   3.01776695       3.93283010       0.00000000       35860.2383       2.51610446    
   3.53553391       3.53553391       0.00000000       35860.2383       2.51610446    
   3.53553391       3.53553391      -1.00000000       35860.2383       2.51610446    
   1.29409504       4.82962894      -10.0000000       4017.90771      -2.98556685    
   1.29409504       4.82962894      -9.00000000       4017.90771      -2.98556685    
   1.89704800       4.57987785      -9.00000000       4017.90771      -2.98556685    
   1.89704800       4.57987785      -10.0000000       4017.90771      -2.98556685    
   1.29409504       4.82962894      -9.00000000       5524.09668      -3.00626087    
   1.29409504       4.82962894      -8.00000000       5524.09668      -3.00626087    
   1.89704800       4.57987785      -8.00000000       5524.09668      -3.00626087    
   1.89704800       4.57987785      -9.00000000       5524.09668      -3.00626087    
   1.29409504       4.82962894      -8.00000000       7200.44873       2.99555874    
   1.29409504       4.82962894      -7.00000000       7200.44873       2.99555874    
   1.89704800       4.57987785      -7.00000000       7200.44873       2.99555874    
   1.89704800       4.57987785      -8.00000000       7200.44873       2.99555874    
   1.29409504       4.82962894      -7.00000000       9804.05273       2.76328325    
   1.29409504       4.82962894      -6.00000000       9804.05273       2.76328325    
   1.89704800       4.57987785      -6.00000000       9804.05273       2.76328325    
   1.89704800       4.57987785      -7.00000000       9804.05273       2.76328325    
   1.29409504       4.82962894      -6.00000000       13319.6611       2.62120533    
   1.29409504       4.82962894      -5.00000000       13319.6611       2.62120533    
   1.89704800       4.57987785      -5.00000000       13319.6611       2.62120533    
   1.89704800       4.57987785      -6.00000000       13319.6611       2.62120533    
   1.29409504       4.82962894      -5.00000000       17634.3945       2.54570174    
   1.29409504       4.82962894      -4.00000000       17634.3945       2.54570174    
   1.89704800       4.57987785      -4.00000000       17634.3945       2.54570174    
   1.89704800       4.57987785      -5.00000000       17634.3945       2.54570174    
   1.29409504       4.82962894      -4.00000000       22747.9648       2.51204944    
   1.29409504       4.82962894      -3.00000000       22747.9648       2.51204944    
   1.89704800       4.57987785      -3.00000000       22747.9648       2.51204944    