 VARIABLES="X" "Y" "Z" "abs(p) (Pa)" "angle(p) (rad)"
ZONE N=   1080,E =     600, F=FEPOINT, ET=QUADRILATERAL
   4.82962894       1.29409504      -10.0000000       121.930634       1.57107747    
   4.82962894       1.29409504      -9.00000000       121.930634       1.57107747    
   4.91481400      0.647047520      -9.00000000       121.930634       1.57107747    
   4.91481400      0.647047520      -10.0000000       121.930634       1.57107747    
   4.82962894       1.29409504      -9.00000000       145.413712       1.57105470    
   4.82962894       1.29409504      -8.00000000       145.413712       1.57105470    
   4.91481400      0.647047520      -8.00000000       145.413712       1.57105470    
   4.91481400      0.647047520      -9.00000000       145.413712       1.57105470    
   4.82962894       1.29409504      -8.00000000       219.836197       1.57097507    
   4.82962894       1.29409504      -7.00000000       219.836197       1.57097507    
   4.91481400      0.647047520      -7.00000000       219.836197       1.57097507    
   4.91481400      0.647047520      -8.00000000       219.836197       1.57097507    
   4.82962894       1.29409504      -7.00000000       314.681458       1.57092512    
   4.82962894       1.29409504      -6.00000000       314.681458       1.57092512    
   4.91481400      0.647047520      -6.00000000       314.681458       1.57092512    
   4.91481400      0.647047520      -7.00000000       314.681458       1.57092512    
   4.82962894       1.29409504      -6.00000000       419.327209       1.57089579    
   4.82962894       1.29409504      -5.00000000       419.327209       1.57089579    
   4.91481400      0.647047520      -5.00000000       419.327209       1.57089579    
   4.91481400      0.647047520      -6.00000000       419.327209       1.57089579    
   4.82962894       1.29409504      -5.00000000       527.103638       1.57087672    
   4.82962894       1.29409504      -4.00000000       527.103638       1.57087672    
   4.91481400      0.647047520      -4.00000000       527.103638       1.57087672    
   4.91481400      0.647047520      -5.00000000       527.103638       1.57087672    
   4.82962894       1.29409504      -4.00000000       632.468811       1.57086456    
   4.82962894       1.29409504      -3.00000000       632.468811       1.57086456    
   4.91481400      0.647047520      -3.00000000       632.468811       1.57086456    
   4.91481400      0.647047520      -4.00000000       632.468811       1.57086456    
   4.82962894       1.29409504      -3.00000000       729.985474       1.57085574    
   4.82962894       1.29409504      -2.00000000       729.985474       1.57085574    
   4.91481400      0.647047520      -2.00000000       729.985474       1.57085574    
   4.91481400      0.647047520      -3.00000000       729.985474       1.57085574    
   4.82962894       1.29409504      -2.00000000       812.677551       1.57085037    
   4.82962894       1.29409504      -1.00000000       812.677551       1.57085037    
   4.91481400      0.647047520      -1.00000000       812.677551       1.57085037    
   4.91481400      0.647047520      -2.00000000       812.677551       1.57085037    
   4.82962894       1.29409504      -1.00000000       868.363159       1.57084715    
   4.82962894       1.29409504       0.00000000       868.363159       1.57084715    
   4.91481400      0.647047520       0.00000000       868.363159       1.57084715    
   4.91481400      0.647047520      -1.00000000       868.363159       1.57084715    
   4.91481400      0.647047520      -10.0000000       35.4275360       1.57113850    
   4.91481400      0.647047520      -9.00000000       35.4275360       1.57113850    
   5.00000000       0.00000000      -9.00000000       35.4275360       1.57113850    
   5.00000000       0.00000000      -10.0000000       35.4275360       1.57113850    
   4.91481400      0.647047520      -9.00000000       47.3212242       1.57107699    
   4.91481400      0.647047520      -8.00000000       47.3212242       1.57107699    
   5.00000000       0.00000000      -8.00000000       47.3212242       1.57107699    
   5.00000000       0.00000000      -9.00000000       47.3212242       1.57107699    
   4.91481400      0.647047520      -8.00000000       78.2368622       1.57097495    
   4.91481400      0.647047520      -7.00000000       78.2368622       1.57097495    
   5.00000000       0.00000000      -7.00000000       78.2368622       1.57097495    
   5.00000000       0.00000000      -8.00000000       78.2368622       1.57097495    
   4.91481400      0.647047520      -7.00000000       116.431770       1.57092035    
   4.91481400      0.647047520      -6.00000000       116.431770       1.57092035    
   5.00000000       0.00000000      -6.00000000       116.431770       1.57092035    
   5.00000000       0.00000000      -7.00000000       116.431770       1.57092035    
   4.91481400      0.647047520      -6.00000000       158.160675       1.57088971    
   4.91481400      0.647047520      -5.00000000       158.160675       1.57088971    
   5.00000000       0.00000000      -5.00000000       158.160675       1.57088971    
   5.00000000       0.00000000      -6.00000000       158.160675       1.57088971    
   4.91481400      0.647047520      -5.00000000       200.981567       1.57087052    
   4.91481400      0.647047520      -4.00000000       200.981567       1.57087052    
   5.00000000       0.00000000      -4.00000000       200.981567       1.57087052    
   5.00000000       0.00000000      -5.00000000       200.981567       1.57087052    
   4.91481400      0.647047520      -4.00000000       243.033142       1.57085943    
   4.91481400      0.647047520      -3.00000000       243.033142       1.57085943    
   5.00000000       0.00000000      -3.00000000       243.033142       1.57085943    
   5.00000000       0.00000000      -4.00000000       243.033142       1.57085943    
   4.91481400      0.647047520      -3.00000000       282.225525       1.57085097    
   4.91481400      0.647047520      -2.00000000       282.225525       1.57085097    
   5.00000000       0.00000000      -2.00000000       282.225525       1.57085097    
   5.00000000       0.00000000      -3.00000000       282.225525       1.57085097    
   4.91481400      0.647047520      -2.00000000       316.142487       1.57084560    
   4.91481400      0.647047520      -1.00000000       316.142487       1.57084560    
   5.00000000       0.00000000      -1.00000000       316.142487       1.57084560    
   5.00000000       0.00000000      -2.00000000       316.142487       1.57084560    
   4.91481400      0.647047520      -1.00000000       340.093475       1.57084215    
   4.91481400      0.647047520       0.00000000       340.093475       1.57084215    
   5.00000000       0.00000000       0.00000000       340.093475       1.57084215    
   5.00000000       0.00000000      -1.00000000       340.093475       1.57084215    
   4.33012676       2.50000000      -10.0000000       270.981506       1.57108593    
   4.33012676       2.50000000      -9.00000000       270.981506       1.57108593    
   4.57987785       1.89704800      -9.00000000       270.981506       1.57108593    
   4.57987785       1.89704800      -10.0000000       270.981506       1.57108593    
   4.33012676       2.50000000      -9.00000000       328.240448       1.57105756    
   4.33012676       2.50000000      -8.00000000       328.240448       1.57105756    
   4.57987785       1.89704800      -8.00000000       328.240448       1.57105756    
   4.57987785       1.89704800      -9.00000000       328.240448       1.57105756    
   4.33012676       2.50000000      -8.00000000       502.926971       1.57097495    
   4.33012676       2.50000000      -7.00000000       502.926971       1.57097495    
   4.57987785       1.89704800      -7.00000000       502.926971       1.57097495    
   4.57987785       1.89704800      -8.00000000       502.926971       1.57097495    
   4.33012676       2.50000000      -7.00000000       724.349243       1.57092464    
   4.33012676       2.50000000      -6.00000000       724.349243       1.57092464    
   4.57987785       1.89704800      -6.00000000       724.349243       1.57092464    
   4.57987785       1.89704800      -7.00000000       724.349243       1.57092464    
   4.33012676       2.50000000      -6.00000000       968.237305       1.57089448    
   4.33012676       2.50000000      -5.00000000       968.237305       1.57089448    
   4.57987785       1.89704800      -5.00000000       968.237305       1.57089448    
   4.57987785       1.89704800      -6.00000000       968.237305       1.57089448    
   4.33012676       2.50000000      -5.00000000       1219.26709       1.57087588    
   4.33012676       2.50000000      -4.00000000       1219.26709       1.57087588    
   4.57987785       1.89704800      -4.00000000       1219.26709       1.57087588    
   4.57987785       1.89704800      -5.00000000       1219.26709       1.57087588    
   4.33012676       2.50000000      -4.00000000       1464.87451       1.57086349    
   4.33012676       2.50000000      -3.00000000       1464.87451       1.57086349    
   4.57987785       1.89704800      -3.00000000       1464.87451       1.57086349    
   4.57987785       1.89704800      -4.00000000       1464.87451       1.57086349    
   4.33012676       2.50000000      -3.00000000       1692.44604       1.57085514    
   4.33012676       2.50000000      -2.00000000       1692.44604       1.57085514    
   4.57987785       1.89704800      -2.00000000       1692.44604       1.57085514    
   4.57987785       1.89704800      -3.00000000       1692.44604       1.57085514    
   4.33012676       2.50000000      -2.00000000       1886.11841       1.57084954    
   4.33012676       2.50000000      -1.00000000       1886.11841       1.57084954    
   4.57987785       1.89704800      -1.00000000       1886.11841       1.57084954    
   4.57987785       1.89704800      -2.00000000       1886.11841       1.57084954    
   4.33012676       2.50000000      -1.00000000       2017.64355       1.57084644    
   4.33012676       2.50000000       0.00000000       2017.64355       1.57084644    
   4.57987785       1.89704800       0.00000000       2017.64355       1.57084644    
   4.57987785       1.89704800      -1.00000000       2017.64355       1.57084644    
   4.57987785       1.89704800      -10.0000000       190.372559       1.57109988    
   4.57987785       1.89704800      -9.00000000       190.372559       1.57109988    
   4.82962894       1.29409504      -9.00000000       190.372559       1.57109988    
   4.82962894       1.29409504      -10.0000000       190.372559       1.57109988    
   4.57987785       1.89704800      -9.00000000       236.834106       1.57106364    
   4.57987785       1.89704800      -8.00000000       236.834106       1.57106364    
   4.82962894       1.29409504      -8.00000000       236.834106       1.57106364    
   4.82962894       1.29409504      -9.00000000       236.834106       1.57106364    
   4.57987785       1.89704800      -8.00000000       370.976105       1.57097518    
   4.57987785       1.89704800      -7.00000000       370.976105       1.57097518    
   4.82962894       1.29409504      -7.00000000       370.976105       1.57097518    
   4.82962894       1.29409504      -8.00000000       370.976105       1.57097518    
   4.57987785       1.89704800      -7.00000000       539.611938       1.57092345    
   4.57987785       1.89704800      -6.00000000       539.611938       1.57092345    
   4.82962894       1.29409504      -6.00000000       539.611938       1.57092345    
   4.82962894       1.29409504      -7.00000000       539.611938       1.57092345    
   4.57987785       1.89704800      -6.00000000       724.865845       1.57089293    
   4.57987785       1.89704800      -5.00000000       724.865845       1.57089293    
   4.82962894       1.29409504      -5.00000000       724.865845       1.57089293    
   4.82962894       1.29409504      -6.00000000       724.865845       1.57089293    
   4.57987785       1.89704800      -5.00000000       915.365234       1.57087457    
   4.57987785       1.89704800      -4.00000000       915.365234       1.57087457    
   4.82962894       1.29409504      -4.00000000       915.365234       1.57087457    
   4.82962894       1.29409504      -5.00000000       915.365234       1.57087457    
   4.57987785       1.89704800      -4.00000000       1101.98010       1.57086217    
   4.57987785       1.89704800      -3.00000000       1101.98010       1.57086217    
   4.82962894       1.29409504      -3.00000000       1101.98010       1.57086217    
   4.82962894       1.29409504      -4.00000000       1101.98010       1.57086217    
   4.57987785       1.89704800      -3.00000000       1275.20044       1.57085383    
   4.57987785       1.89704800      -2.00000000       1275.20044       1.57085383    
   4.82962894       1.29409504      -2.00000000       1275.20044       1.57085383    
   4.82962894       1.29409504      -3.00000000       1275.20044       1.57085383    
   4.57987785       1.89704800      -2.00000000       1423.41907       1.57084835    
   4.57987785       1.89704800      -1.00000000       1423.41907       1.57084835    
   4.82962894       1.29409504      -1.00000000       1423.41907       1.57084835    
   4.82962894       1.29409504      -2.00000000       1423.41907       1.57084835    
   4.57987785       1.89704800      -1.00000000       1525.37463       1.57084513    
   4.57987785       1.89704800       0.00000000       1525.37463       1.57084513    
   4.82962894       1.29409504       0.00000000       1525.37463       1.57084513    
   4.82962894       1.29409504      -1.00000000       1525.37463       1.57084513    
   3.53553391       3.53553391      -10.0000000       401.564392       1.57108903    
   3.53553391       3.53553391      -9.00000000       401.564392       1.57108903    
   3.93283010       3.01776695      -9.00000000       401.564392       1.57108903    
   3.93283010       3.01776695      -10.0000000       401.564392       1.57108903    
   3.53553391       3.53553391      -9.00000000       488.696289       1.57105851    
   3.53553391       3.53553391      -8.00000000       488.696289       1.57105851    
   3.93283010       3.01776695      -8.00000000       488.696289       1.57105851    
   3.93283010       3.01776695      -9.00000000       488.696289       1.57105851    
   3.53553391       3.53553391      -8.00000000       751.744080       1.57097483    
   3.53553391       3.53553391      -7.00000000       751.744080       1.57097483    
   3.93283010       3.01776695      -7.00000000       751.744080       1.57097483    
   3.93283010       3.01776695      -8.00000000       751.744080       1.57097483    
   3.53553391       3.53553391      -7.00000000       1084.65381       1.57092440    
   3.53553391       3.53553391      -6.00000000       1084.65381       1.57092440    
   3.93283010       3.01776695      -6.00000000       1084.65381       1.57092440    
   3.93283010       3.01776695      -7.00000000       1084.65381       1.57092440    
   3.53553391       3.53553391      -6.00000000       1451.16492       1.57089436    
   3.53553391       3.53553391      -5.00000000       1451.16492       1.57089436    
   3.93283010       3.01776695      -5.00000000       1451.16492       1.57089436    
   3.93283010       3.01776695      -6.00000000       1451.16492       1.57089436    
   3.53553391       3.53553391      -5.00000000       1828.33545       1.57087564    
   3.53553391       3.53553391      -4.00000000       1828.33545       1.57087564    
   3.93283010       3.01776695      -4.00000000       1828.33545       1.57087564    
   3.93283010       3.01776695      -5.00000000       1828.33545       1.57087564    
   3.53553391       3.53553391      -4.00000000       2197.44800       1.57086313    
   3.53553391       3.53553391      -3.00000000       2197.44800       1.57086313    
   3.93283010       3.01776695      -3.00000000       2197.44800       1.57086313    
   3.93283010       3.01776695      -4.00000000       2197.44800       1.57086313    
   3.53553391       3.53553391      -3.00000000       2539.57080       1.57085490    
   3.53553391       3.53553391      -2.00000000       2539.57080       1.57085490    
   3.93283010       3.01776695      -2.00000000       2539.57080       1.57085490    
   3.93283010       3.01776695      -3.00000000       2539.57080       1.57085490    
   3.53553391       3.53553391      -2.00000000       2831.01929       1.57084942    
   3.53553391       3.53553391      -1.00000000       2831.01929       1.57084942    
   3.93283010       3.01776695      -1.00000000       2831.01929       1.57084942    
   3.93283010       3.01776695      -2.00000000       2831.01929       1.57084942    
   3.53553391       3.53553391      -1.00000000       3029.42334       1.57084620    
   3.53553391       3.53553391       0.00000000       3029.42334       1.57084620    
   3.93283010       3.01776695       0.00000000       3029.42334       1.57084620    
   3.93283010       3.01776695      -1.00000000       3029.42334       1.57084620    
   3.93283010       3.01776695      -10.0000000       332.343018       1.57109642    
   3.93283010       3.01776695      -9.00000000       332.343018       1.57109642    
   4.33012676       2.50000000      -9.00000000       332.343018       1.57109642    
   4.33012676       2.50000000      -10.0000000       332.343018       1.57109642    
   3.93283010       3.01776695      -9.00000000       410.203369       1.57106149    
   3.93283010       3.01776695      -8.00000000       410.203369       1.57106149    
   4.33012676       2.50000000      -8.00000000       410.203369       1.57106149    
   4.33012676       2.50000000      -9.00000000       410.203369       1.57106149    
   3.93283010       3.01776695      -8.00000000       638.434937       1.57097530    
   3.93283010       3.01776695      -7.00000000       638.434937       1.57097530    
   4.33012676       2.50000000      -7.00000000       638.434937       1.57097530    
   4.33012676       2.50000000      -8.00000000       638.434937       1.57097530    
   3.93283010       3.01776695      -7.00000000       926.013245       1.57092369    
   3.93283010       3.01776695      -6.00000000       926.013245       1.57092369    
   4.33012676       2.50000000      -6.00000000       926.013245       1.57092369    
   4.33012676       2.50000000      -7.00000000       926.013245       1.57092369    
   3.93283010       3.01776695      -6.00000000       1242.17822       1.57089365    
   3.93283010       3.01776695      -5.00000000       1242.17822       1.57089365    
   4.33012676       2.50000000      -5.00000000       1242.17822       1.57089365    
   4.33012676       2.50000000      -6.00000000       1242.17822       1.57089365    
   3.93283010       3.01776695      -5.00000000       1567.37195       1.57087469    
   3.93283010       3.01776695      -4.00000000       1567.37195       1.57087469    
   4.33012676       2.50000000      -4.00000000       1567.37195       1.57087469    
   4.33012676       2.50000000      -5.00000000       1567.37195       1.57087469    
   3.93283010       3.01776695      -4.00000000       1885.82446       1.57086253    
   3.93283010       3.01776695      -3.00000000       1885.82446       1.57086253    
   4.33012676       2.50000000      -3.00000000       1885.82446       1.57086253    
   4.33012676       2.50000000      -4.00000000       1885.82446       1.57086253    
   3.93283010       3.01776695      -3.00000000       2181.27539       1.57085419    
   3.93283010       3.01776695      -2.00000000       2181.27539       1.57085419    
   4.33012676       2.50000000      -2.00000000       2181.27539       1.57085419    
   4.33012676       2.50000000      -3.00000000       2181.27539       1.57085419    
   3.93283010       3.01776695      -2.00000000       2433.69507       1.57084870    
   3.93283010       3.01776695      -1.00000000       2433.69507       1.57084870    
   4.33012676       2.50000000      -1.00000000       2433.69507       1.57084870    
   4.33012676       2.50000000      -2.00000000       2433.69507       1.57084870    
   3.93283010       3.01776695      -1.00000000       2606.70264       1.57084548    
   3.93283010       3.01776695       0.00000000       2606.70264       1.57084548    
   4.33012676       2.50000000       0.00000000       2606.70264       1.57084548    
   4.33012676       2.50000000      -1.00000000       2606.70264       1.57084548    
   2.50000000       4.33012676      -10.0000000       504.780029       1.57109022    
   2.50000000       4.33012676      -9.00000000       504.780029       1.57109022    
   3.01776695       3.93283010      -9.00000000       504.780029       1.57109022    
   3.01776695       3.93283010      -10.0000000       504.780029       1.57109022    
   2.50000000       4.33012676      -9.00000000       615.850952       1.57105911    
   2.50000000       4.33012676      -8.00000000       615.850952       1.57105911    
   3.01776695       3.93283010      -8.00000000       615.850952       1.57105911    
   3.01776695       3.93283010      -9.00000000       615.850952       1.57105911    
   2.50000000       4.33012676      -8.00000000       949.330933       1.57097507    
   2.50000000       4.33012676      -7.00000000       949.330933       1.57097507    
   3.01776695       3.93283010      -7.00000000       949.330933       1.57097507    
   3.01776695       3.93283010      -8.00000000       949.330933       1.57097507    
   2.50000000       4.33012676      -7.00000000       1371.04016       1.57092428    
   2.50000000       4.33012676      -6.00000000       1371.04016       1.57092428    
   3.01776695       3.93283010      -6.00000000       1371.04016       1.57092428    
   3.01776695       3.93283010      -7.00000000       1371.04016       1.57092428    
   2.50000000       4.33012676      -6.00000000       1835.19946       1.57089412    
   2.50000000       4.33012676      -5.00000000       1835.19946       1.57089412    
   3.01776695       3.93283010      -5.00000000       1835.19946       1.57089412    
   3.01776695       3.93283010      -6.00000000       1835.19946       1.57089412    
   2.50000000       4.33012676      -5.00000000       2312.80981       1.57087541    
   2.50000000       4.33012676      -4.00000000       2312.80981       1.57087541    
   3.01776695       3.93283010      -4.00000000       2312.80981       1.57087541    
   3.01776695       3.93283010      -5.00000000       2312.80981       1.57087541    
   2.50000000       4.33012676      -4.00000000       2780.27124       1.57086301    
   2.50000000       4.33012676      -3.00000000       2780.27124       1.57086301    
   3.01776695       3.93283010      -3.00000000       2780.27124       1.57086301    
   3.01776695       3.93283010      -4.00000000       2780.27124       1.57086301    
   2.50000000       4.33012676      -3.00000000       3213.63281       1.57085478    
   2.50000000       4.33012676      -2.00000000       3213.63281       1.57085478    
   3.01776695       3.93283010      -2.00000000       3213.63281       1.57085478    
   3.01776695       3.93283010      -3.00000000       3213.63281       1.57085478    
   2.50000000       4.33012676      -2.00000000       3582.99609       1.57084930    
   2.50000000       4.33012676      -1.00000000       3582.99609       1.57084930    
   3.01776695       3.93283010      -1.00000000       3582.99609       1.57084930    
   3.01776695       3.93283010      -2.00000000       3582.99609       1.57084930    
   2.50000000       4.33012676      -1.00000000       3834.75488       1.57084608    
   2.50000000       4.33012676       0.00000000       3834.75488       1.57084608    
   3.01776695       3.93283010       0.00000000       3834.75488       1.57084608    
   3.01776695       3.93283010      -1.00000000       3834.75488       1.57084608    
   3.01776695       3.93283010      -10.0000000       451.665985       1.57109451    
   3.01776695       3.93283010      -9.00000000       451.665985       1.57109451    
   3.53553391       3.53553391      -9.00000000       451.665985       1.57109451    
   3.53553391       3.53553391      -10.0000000       451.665985       1.57109451    
   3.01776695       3.93283010      -9.00000000       555.620789       1.57106078    
   3.01776695       3.93283010      -8.00000000       555.620789       1.57106078    
   3.53553391       3.53553391      -8.00000000       555.620789       1.57106078    
   3.53553391       3.53553391      -9.00000000       555.620789       1.57106078    
   3.01776695       3.93283010      -8.00000000       862.386719       1.57097518    
   3.01776695       3.93283010      -7.00000000       862.386719       1.57097518    
   3.53553391       3.53553391      -7.00000000       862.386719       1.57097518    
   3.53553391       3.53553391      -8.00000000       862.386719       1.57097518    
   3.01776695       3.93283010      -7.00000000       1249.31555       1.57092381    
   3.01776695       3.93283010      -6.00000000       1249.31555       1.57092381    
   3.53553391       3.53553391      -6.00000000       1249.31555       1.57092381    
   3.53553391       3.53553391      -7.00000000       1249.31555       1.57092381    
   3.01776695       3.93283010      -6.00000000       1674.83582       1.57089376    
   3.01776695       3.93283010      -5.00000000       1674.83582       1.57089376    
   3.53553391       3.53553391      -5.00000000       1674.83582       1.57089376    
   3.53553391       3.53553391      -6.00000000       1674.83582       1.57089376    
   3.01776695       3.93283010      -5.00000000       2112.56128       1.57087493    
   3.01776695       3.93283010      -4.00000000       2112.56128       1.57087493    
   3.53553391       3.53553391      -4.00000000       2112.56128       1.57087493    
   3.53553391       3.53553391      -5.00000000       2112.56128       1.57087493    
   3.01776695       3.93283010      -4.00000000       2541.15283       1.57086265    
   3.01776695       3.93283010      -3.00000000       2541.15283       1.57086265    
   3.53553391       3.53553391      -3.00000000       2541.15283       1.57086265    
   3.53553391       3.53553391      -4.00000000       2541.15283       1.57086265    
   3.01776695       3.93283010      -3.00000000       2938.70288       1.57085443    
   3.01776695       3.93283010      -2.00000000       2938.70288       1.57085443    
   3.53553391       3.53553391      -2.00000000       2938.70288       1.57085443    
   3.53553391       3.53553391      -3.00000000       2938.70288       1.57085443    
   3.01776695       3.93283010      -2.00000000       3278.11548       1.57084882    
   3.01776695       3.93283010      -1.00000000       3278.11548       1.57084882    
   3.53553391       3.53553391      -1.00000000       3278.11548       1.57084882    
   3.53553391       3.53553391      -2.00000000       3278.11548       1.57084882    
   3.01776695       3.93283010      -1.00000000       3510.39282       1.57084560    
   3.01776695       3.93283010       0.00000000       3510.39282       1.57084560    
   3.53553391       3.53553391       0.00000000       3510.39282       1.57084560    
   3.53553391       3.53553391      -1.00000000       3510.39282       1.57084560    
   1.29409504       4.82962894      -10.0000000       573.597595       1.57109046    
   1.29409504       4.82962894      -9.00000000       573.597595       1.57109046    
   1.89704800       4.57987785      -9.00000000       573.597595       1.57109046    
   1.89704800       4.57987785      -10.0000000       573.597595       1.57109046    
   1.29409504       4.82962894      -9.00000000       701.034912       1.57105935    
   1.29409504       4.82962894      -8.00000000       701.034912       1.57105935    
   1.89704800       4.57987785      -8.00000000       701.034912       1.57105935    
   1.89704800       4.57987785      -9.00000000       701.034912       1.57105935    
   1.29409504       4.82962894      -8.00000000       1082.22144       1.57097495    
   1.29409504       4.82962894      -7.00000000       1082.22144       1.57097495    
   1.89704800       4.57987785      -7.00000000       1082.22144       1.57097495    
   1.89704800       4.57987785      -8.00000000       1082.22144       1.57097495    
   1.29409504       4.82962894      -7.00000000       1563.99512       1.57092428    
   1.29409504       4.82962894      -6.00000000       1563.99512       1.57092428    
   1.89704800       4.57987785      -6.00000000       1563.99512       1.57092428    
   1.89704800       4.57987785      -7.00000000       1563.99512       1.57092428    
   1.29409504       4.82962894      -6.00000000       2094.16406       1.57089412    
   1.29409504       4.82962894      -5.00000000       2094.16406       1.57089412    
   1.89704800       4.57987785      -5.00000000       2094.16406       1.57089412    
   1.89704800       4.57987785      -6.00000000       2094.16406       1.57089412    
   1.29409504       4.82962894      -5.00000000       2639.66577       1.57087541    
   1.29409504       4.82962894      -4.00000000       2639.66577       1.57087541    
   1.89704800       4.57987785      -4.00000000       2639.66577       1.57087541    
   1.89704800       4.57987785      -5.00000000       2639.66577       1.57087541    
   1.29409504       4.82962894      -4.00000000       3173.61987       1.57086301    
   1.29409504       4.82962894      -3.00000000       3173.61987       1.57086301    
   1.89704800       4.57987785      -3.00000000       3173.61987       1.57086301    