 VARIABLES="X" "Y" "Z" "abs(p) (Pa)" "angle(p) (rad)"
ZONE N=   1080,E =     600, F=FEPOINT, ET=QUADRILATERAL
   4.82962894       1.29409504      -10.0000000       16.9445744       1.57079625    
   4.82962894       1.29409504      -9.00000000       16.9445744       1.57079625    
   4.91481400      0.647047520      -9.00000000       16.9445744       1.57079625    
   4.91481400      0.647047520      -10.0000000       16.9445744       1.57079625    
   4.82962894       1.29409504      -9.00000000       17.3285465       1.57079625    
   4.82962894       1.29409504      -8.00000000       17.3285465       1.57079625    
   4.91481400      0.647047520      -8.00000000       17.3285465       1.57079625    
   4.91481400      0.647047520      -9.00000000       17.3285465       1.57079625    
   4.82962894       1.29409504      -8.00000000       17.3306866       1.57079625    
   4.82962894       1.29409504      -7.00000000       17.3306866       1.57079625    
   4.91481400      0.647047520      -7.00000000       17.3306866       1.57079625    
   4.91481400      0.647047520      -8.00000000       17.3306866       1.57079625    
   4.82962894       1.29409504      -7.00000000       17.3334541       1.57079625    
   4.82962894       1.29409504      -6.00000000       17.3334541       1.57079625    
   4.91481400      0.647047520      -6.00000000       17.3334541       1.57079625    
   4.91481400      0.647047520      -7.00000000       17.3334541       1.57079625    
   4.82962894       1.29409504      -6.00000000       17.3267231       1.57079625    
   4.82962894       1.29409504      -5.00000000       17.3267231       1.57079625    
   4.91481400      0.647047520      -5.00000000       17.3267231       1.57079625    
   4.91481400      0.647047520      -6.00000000       17.3267231       1.57079625    
   4.82962894       1.29409504      -5.00000000       17.3264351       1.57079613    
   4.82962894       1.29409504      -4.00000000       17.3264351       1.57079613    
   4.91481400      0.647047520      -4.00000000       17.3264351       1.57079613    
   4.91481400      0.647047520      -5.00000000       17.3264351       1.57079613    
   4.82962894       1.29409504      -4.00000000       17.3393059       1.57079625    
   4.82962894       1.29409504      -3.00000000       17.3393059       1.57079625    
   4.91481400      0.647047520      -3.00000000       17.3393059       1.57079625    
   4.91481400      0.647047520      -4.00000000       17.3393059       1.57079625    
   4.82962894       1.29409504      -3.00000000       17.3331280       1.57079625    
   4.82962894       1.29409504      -2.00000000       17.3331280       1.57079625    
   4.91481400      0.647047520      -2.00000000       17.3331280       1.57079625    
   4.91481400      0.647047520      -3.00000000       17.3331280       1.57079625    
   4.82962894       1.29409504      -2.00000000       17.3352184       1.57079625    
   4.82962894       1.29409504      -1.00000000       17.3352184       1.57079625    
   4.91481400      0.647047520      -1.00000000       17.3352184       1.57079625    
   4.91481400      0.647047520      -2.00000000       17.3352184       1.57079625    
   4.82962894       1.29409504      -1.00000000       17.2491055       1.57079613    
   4.82962894       1.29409504       0.00000000       17.2491055       1.57079613    
   4.91481400      0.647047520       0.00000000       17.2491055       1.57079613    
   4.91481400      0.647047520      -1.00000000       17.2491055       1.57079613    
   4.91481400      0.647047520      -10.0000000       16.9448338      -1.57079649    
   4.91481400      0.647047520      -9.00000000       16.9448338      -1.57079649    
   5.00000000       0.00000000      -9.00000000       16.9448338      -1.57079649    
   5.00000000       0.00000000      -10.0000000       16.9448338      -1.57079649    
   4.91481400      0.647047520      -9.00000000       17.3288879      -1.57079649    
   4.91481400      0.647047520      -8.00000000       17.3288879      -1.57079649    
   5.00000000       0.00000000      -8.00000000       17.3288879      -1.57079649    
   5.00000000       0.00000000      -9.00000000       17.3288879      -1.57079649    
   4.91481400      0.647047520      -8.00000000       17.3309956      -1.57079637    
   4.91481400      0.647047520      -7.00000000       17.3309956      -1.57079637    
   5.00000000       0.00000000      -7.00000000       17.3309956      -1.57079637    
   5.00000000       0.00000000      -8.00000000       17.3309956      -1.57079637    
   4.91481400      0.647047520      -7.00000000       17.3337765      -1.57079637    
   4.91481400      0.647047520      -6.00000000       17.3337765      -1.57079637    
   5.00000000       0.00000000      -6.00000000       17.3337765      -1.57079637    
   5.00000000       0.00000000      -7.00000000       17.3337765      -1.57079637    
   4.91481400      0.647047520      -6.00000000       17.3270779      -1.57079637    
   4.91481400      0.647047520      -5.00000000       17.3270779      -1.57079637    
   5.00000000       0.00000000      -5.00000000       17.3270779      -1.57079637    
   5.00000000       0.00000000      -6.00000000       17.3270779      -1.57079637    
   4.91481400      0.647047520      -5.00000000       17.3268070      -1.57079649    
   4.91481400      0.647047520      -4.00000000       17.3268070      -1.57079649    
   5.00000000       0.00000000      -4.00000000       17.3268070      -1.57079649    
   5.00000000       0.00000000      -5.00000000       17.3268070      -1.57079649    
   4.91481400      0.647047520      -4.00000000       17.3396511      -1.57079637    
   4.91481400      0.647047520      -3.00000000       17.3396511      -1.57079637    
   5.00000000       0.00000000      -3.00000000       17.3396511      -1.57079637    
   5.00000000       0.00000000      -4.00000000       17.3396511      -1.57079637    
   4.91481400      0.647047520      -3.00000000       17.3334351      -1.57079649    
   4.91481400      0.647047520      -2.00000000       17.3334351      -1.57079649    
   5.00000000       0.00000000      -2.00000000       17.3334351      -1.57079649    
   5.00000000       0.00000000      -3.00000000       17.3334351      -1.57079649    
   4.91481400      0.647047520      -2.00000000       17.3355026      -1.57079637    
   4.91481400      0.647047520      -1.00000000       17.3355026      -1.57079637    
   5.00000000       0.00000000      -1.00000000       17.3355026      -1.57079637    
   5.00000000       0.00000000      -2.00000000       17.3355026      -1.57079637    
   4.91481400      0.647047520      -1.00000000       17.2493687      -1.57079637    
   4.91481400      0.647047520       0.00000000       17.2493687      -1.57079637    
   5.00000000       0.00000000       0.00000000       17.2493687      -1.57079637    
   5.00000000       0.00000000      -1.00000000       17.2493687      -1.57079637    
   4.33012676       2.50000000      -10.0000000       16.9447384       1.57079637    
   4.33012676       2.50000000      -9.00000000       16.9447384       1.57079637    
   4.57987785       1.89704800      -9.00000000       16.9447384       1.57079637    
   4.57987785       1.89704800      -10.0000000       16.9447384       1.57079637    
   4.33012676       2.50000000      -9.00000000       17.3287296       1.57079625    
   4.33012676       2.50000000      -8.00000000       17.3287296       1.57079625    
   4.57987785       1.89704800      -8.00000000       17.3287296       1.57079625    
   4.57987785       1.89704800      -9.00000000       17.3287296       1.57079625    
   4.33012676       2.50000000      -8.00000000       17.3308620       1.57079625    
   4.33012676       2.50000000      -7.00000000       17.3308620       1.57079625    
   4.57987785       1.89704800      -7.00000000       17.3308620       1.57079625    
   4.57987785       1.89704800      -8.00000000       17.3308620       1.57079625    
   4.33012676       2.50000000      -7.00000000       17.3336411       1.57079625    
   4.33012676       2.50000000      -6.00000000       17.3336411       1.57079625    
   4.57987785       1.89704800      -6.00000000       17.3336411       1.57079625    
   4.57987785       1.89704800      -7.00000000       17.3336411       1.57079625    
   4.33012676       2.50000000      -6.00000000       17.3269310       1.57079625    
   4.33012676       2.50000000      -5.00000000       17.3269310       1.57079625    
   4.57987785       1.89704800      -5.00000000       17.3269310       1.57079625    
   4.57987785       1.89704800      -6.00000000       17.3269310       1.57079625    
   4.33012676       2.50000000      -5.00000000       17.3266735       1.57079625    
   4.33012676       2.50000000      -4.00000000       17.3266735       1.57079625    
   4.57987785       1.89704800      -4.00000000       17.3266735       1.57079625    
   4.57987785       1.89704800      -5.00000000       17.3266735       1.57079625    
   4.33012676       2.50000000      -4.00000000       17.3395424       1.57079625    
   4.33012676       2.50000000      -3.00000000       17.3395424       1.57079625    
   4.57987785       1.89704800      -3.00000000       17.3395424       1.57079625    
   4.57987785       1.89704800      -4.00000000       17.3395424       1.57079625    
   4.33012676       2.50000000      -3.00000000       17.3334103       1.57079625    
   4.33012676       2.50000000      -2.00000000       17.3334103       1.57079625    
   4.57987785       1.89704800      -2.00000000       17.3334103       1.57079625    
   4.57987785       1.89704800      -3.00000000       17.3334103       1.57079625    
   4.33012676       2.50000000      -2.00000000       17.3354092       1.57079625    
   4.33012676       2.50000000      -1.00000000       17.3354092       1.57079625    
   4.57987785       1.89704800      -1.00000000       17.3354092       1.57079625    
   4.57987785       1.89704800      -2.00000000       17.3354092       1.57079625    
   4.33012676       2.50000000      -1.00000000       17.2492828       1.57079637    
   4.33012676       2.50000000       0.00000000       17.2492828       1.57079637    
   4.57987785       1.89704800       0.00000000       17.2492828       1.57079637    
   4.57987785       1.89704800      -1.00000000       17.2492828       1.57079637    
   4.57987785       1.89704800      -10.0000000       16.9448929      -1.57079625    
   4.57987785       1.89704800      -9.00000000       16.9448929      -1.57079625    
   4.82962894       1.29409504      -9.00000000       16.9448929      -1.57079625    
   4.82962894       1.29409504      -10.0000000       16.9448929      -1.57079625    
   4.57987785       1.89704800      -9.00000000       17.3289223      -1.57079637    
   4.57987785       1.89704800      -8.00000000       17.3289223      -1.57079637    
   4.82962894       1.29409504      -8.00000000       17.3289223      -1.57079637    
   4.82962894       1.29409504      -9.00000000       17.3289223      -1.57079637    
   4.57987785       1.89704800      -8.00000000       17.3310261      -1.57079637    
   4.57987785       1.89704800      -7.00000000       17.3310261      -1.57079637    
   4.82962894       1.29409504      -7.00000000       17.3310261      -1.57079637    
   4.82962894       1.29409504      -8.00000000       17.3310261      -1.57079637    
   4.57987785       1.89704800      -7.00000000       17.3338089      -1.57079637    
   4.57987785       1.89704800      -6.00000000       17.3338089      -1.57079637    
   4.82962894       1.29409504      -6.00000000       17.3338089      -1.57079637    
   4.82962894       1.29409504      -7.00000000       17.3338089      -1.57079637    
   4.57987785       1.89704800      -6.00000000       17.3270512      -1.57079649    
   4.57987785       1.89704800      -5.00000000       17.3270512      -1.57079649    
   4.82962894       1.29409504      -5.00000000       17.3270512      -1.57079649    
   4.82962894       1.29409504      -6.00000000       17.3270512      -1.57079649    
   4.57987785       1.89704800      -5.00000000       17.3268394      -1.57079637    
   4.57987785       1.89704800      -4.00000000       17.3268394      -1.57079637    
   4.82962894       1.29409504      -4.00000000       17.3268394      -1.57079637    
   4.82962894       1.29409504      -5.00000000       17.3268394      -1.57079637    
   4.57987785       1.89704800      -4.00000000       17.3396454      -1.57079649    
   4.57987785       1.89704800      -3.00000000       17.3396454      -1.57079649    
   4.82962894       1.29409504      -3.00000000       17.3396454      -1.57079649    
   4.82962894       1.29409504      -4.00000000       17.3396454      -1.57079649    
   4.57987785       1.89704800      -3.00000000       17.3333931      -1.57079649    
   4.57987785       1.89704800      -2.00000000       17.3333931      -1.57079649    
   4.82962894       1.29409504      -2.00000000       17.3333931      -1.57079649    
   4.82962894       1.29409504      -3.00000000       17.3333931      -1.57079649    
   4.57987785       1.89704800      -2.00000000       17.3355026      -1.57079637    
   4.57987785       1.89704800      -1.00000000       17.3355026      -1.57079637    
   4.82962894       1.29409504      -1.00000000       17.3355026      -1.57079637    
   4.82962894       1.29409504      -2.00000000       17.3355026      -1.57079637    
   4.57987785       1.89704800      -1.00000000       17.2493439      -1.57079649    
   4.57987785       1.89704800       0.00000000       17.2493439      -1.57079649    
   4.82962894       1.29409504       0.00000000       17.2493439      -1.57079649    
   4.82962894       1.29409504      -1.00000000       17.2493439      -1.57079649    
   3.53553391       3.53553391      -10.0000000       16.9448128       1.57079637    
   3.53553391       3.53553391      -9.00000000       16.9448128       1.57079637    
   3.93283010       3.01776695      -9.00000000       16.9448128       1.57079637    
   3.93283010       3.01776695      -10.0000000       16.9448128       1.57079637    
   3.53553391       3.53553391      -9.00000000       17.3288231       1.57079625    
   3.53553391       3.53553391      -8.00000000       17.3288231       1.57079625    
   3.93283010       3.01776695      -8.00000000       17.3288231       1.57079625    
   3.93283010       3.01776695      -9.00000000       17.3288231       1.57079625    
   3.53553391       3.53553391      -8.00000000       17.3309364       1.57079625    
   3.53553391       3.53553391      -7.00000000       17.3309364       1.57079625    
   3.93283010       3.01776695      -7.00000000       17.3309364       1.57079625    
   3.93283010       3.01776695      -8.00000000       17.3309364       1.57079625    
   3.53553391       3.53553391      -7.00000000       17.3337193       1.57079625    
   3.53553391       3.53553391      -6.00000000       17.3337193       1.57079625    
   3.93283010       3.01776695      -6.00000000       17.3337193       1.57079625    
   3.93283010       3.01776695      -7.00000000       17.3337193       1.57079625    
   3.53553391       3.53553391      -6.00000000       17.3270226       1.57079625    
   3.53553391       3.53553391      -5.00000000       17.3270226       1.57079625    
   3.93283010       3.01776695      -5.00000000       17.3270226       1.57079625    
   3.93283010       3.01776695      -6.00000000       17.3270226       1.57079625    
   3.53553391       3.53553391      -5.00000000       17.3267460       1.57079625    
   3.53553391       3.53553391      -4.00000000       17.3267460       1.57079625    
   3.93283010       3.01776695      -4.00000000       17.3267460       1.57079625    
   3.93283010       3.01776695      -5.00000000       17.3267460       1.57079625    
   3.53553391       3.53553391      -4.00000000       17.3395939       1.57079625    
   3.53553391       3.53553391      -3.00000000       17.3395939       1.57079625    
   3.93283010       3.01776695      -3.00000000       17.3395939       1.57079625    
   3.93283010       3.01776695      -4.00000000       17.3395939       1.57079625    
   3.53553391       3.53553391      -3.00000000       17.3334160       1.57079625    
   3.53553391       3.53553391      -2.00000000       17.3334160       1.57079625    
   3.93283010       3.01776695      -2.00000000       17.3334160       1.57079625    
   3.93283010       3.01776695      -3.00000000       17.3334160       1.57079625    
   3.53553391       3.53553391      -2.00000000       17.3354836       1.57079625    
   3.53553391       3.53553391      -1.00000000       17.3354836       1.57079625    
   3.93283010       3.01776695      -1.00000000       17.3354836       1.57079625    
   3.93283010       3.01776695      -2.00000000       17.3354836       1.57079625    
   3.53553391       3.53553391      -1.00000000       17.2493782       1.57079625    
   3.53553391       3.53553391       0.00000000       17.2493782       1.57079625    
   3.93283010       3.01776695       0.00000000       17.2493782       1.57079625    
   3.93283010       3.01776695      -1.00000000       17.2493782       1.57079625    
   3.93283010       3.01776695      -10.0000000       16.9447231      -1.57079649    
   3.93283010       3.01776695      -9.00000000       16.9447231      -1.57079649    
   4.33012676       2.50000000      -9.00000000       16.9447231      -1.57079649    
   4.33012676       2.50000000      -10.0000000       16.9447231      -1.57079649    
   3.93283010       3.01776695      -9.00000000       17.3287888      -1.57079649    
   3.93283010       3.01776695      -8.00000000       17.3287888      -1.57079649    
   4.33012676       2.50000000      -8.00000000       17.3287888      -1.57079649    
   4.33012676       2.50000000      -9.00000000       17.3287888      -1.57079649    
   3.93283010       3.01776695      -8.00000000       17.3309212      -1.57079649    
   3.93283010       3.01776695      -7.00000000       17.3309212      -1.57079649    
   4.33012676       2.50000000      -7.00000000       17.3309212      -1.57079649    
   4.33012676       2.50000000      -8.00000000       17.3309212      -1.57079649    
   3.93283010       3.01776695      -7.00000000       17.3336296      -1.57079637    
   3.93283010       3.01776695      -6.00000000       17.3336296      -1.57079637    
   4.33012676       2.50000000      -6.00000000       17.3336296      -1.57079637    
   4.33012676       2.50000000      -7.00000000       17.3336296      -1.57079637    
   3.93283010       3.01776695      -6.00000000       17.3268890      -1.57079637    
   3.93283010       3.01776695      -5.00000000       17.3268890      -1.57079637    
   4.33012676       2.50000000      -5.00000000       17.3268890      -1.57079637    
   4.33012676       2.50000000      -6.00000000       17.3268890      -1.57079637    
   3.93283010       3.01776695      -5.00000000       17.3266220      -1.57079637    
   3.93283010       3.01776695      -4.00000000       17.3266220      -1.57079637    
   4.33012676       2.50000000      -4.00000000       17.3266220      -1.57079637    
   4.33012676       2.50000000      -5.00000000       17.3266220      -1.57079637    
   3.93283010       3.01776695      -4.00000000       17.3394737      -1.57079649    
   3.93283010       3.01776695      -3.00000000       17.3394737      -1.57079649    
   4.33012676       2.50000000      -3.00000000       17.3394737      -1.57079649    
   4.33012676       2.50000000      -4.00000000       17.3394737      -1.57079649    
   3.93283010       3.01776695      -3.00000000       17.3332615      -1.57079649    
   3.93283010       3.01776695      -2.00000000       17.3332615      -1.57079649    
   4.33012676       2.50000000      -2.00000000       17.3332615      -1.57079649    
   4.33012676       2.50000000      -3.00000000       17.3332615      -1.57079649    
   3.93283010       3.01776695      -2.00000000       17.3353252      -1.57079637    
   3.93283010       3.01776695      -1.00000000       17.3353252      -1.57079637    
   4.33012676       2.50000000      -1.00000000       17.3353252      -1.57079637    
   4.33012676       2.50000000      -2.00000000       17.3353252      -1.57079637    
   3.93283010       3.01776695      -1.00000000       17.2492313      -1.57079649    
   3.93283010       3.01776695       0.00000000       17.2492313      -1.57079649    
   4.33012676       2.50000000       0.00000000       17.2492313      -1.57079649    
   4.33012676       2.50000000      -1.00000000       17.2492313      -1.57079649    
   2.50000000       4.33012676      -10.0000000       16.9446812       1.57079637    
   2.50000000       4.33012676      -9.00000000       16.9446812       1.57079637    
   3.01776695       3.93283010      -9.00000000       16.9446812       1.57079637    
   3.01776695       3.93283010      -10.0000000       16.9446812       1.57079637    
   2.50000000       4.33012676      -9.00000000       17.3286762       1.57079625    
   2.50000000       4.33012676      -8.00000000       17.3286762       1.57079625    
   3.01776695       3.93283010      -8.00000000       17.3286762       1.57079625    
   3.01776695       3.93283010      -9.00000000       17.3286762       1.57079625    
   2.50000000       4.33012676      -8.00000000       17.3308582       1.57079613    
   2.50000000       4.33012676      -7.00000000       17.3308582       1.57079613    
   3.01776695       3.93283010      -7.00000000       17.3308582       1.57079613    
   3.01776695       3.93283010      -8.00000000       17.3308582       1.57079613    
   2.50000000       4.33012676      -7.00000000       17.3336220       1.57079625    
   2.50000000       4.33012676      -6.00000000       17.3336220       1.57079625    
   3.01776695       3.93283010      -6.00000000       17.3336220       1.57079625    
   3.01776695       3.93283010      -7.00000000       17.3336220       1.57079625    
   2.50000000       4.33012676      -6.00000000       17.3268642       1.57079625    
   2.50000000       4.33012676      -5.00000000       17.3268642       1.57079625    
   3.01776695       3.93283010      -5.00000000       17.3268642       1.57079625    
   3.01776695       3.93283010      -6.00000000       17.3268642       1.57079625    
   2.50000000       4.33012676      -5.00000000       17.3266315       1.57079625    
   2.50000000       4.33012676      -4.00000000       17.3266315       1.57079625    
   3.01776695       3.93283010      -4.00000000       17.3266315       1.57079625    
   3.01776695       3.93283010      -5.00000000       17.3266315       1.57079625    
   2.50000000       4.33012676      -4.00000000       17.3395061       1.57079613    
   2.50000000       4.33012676      -3.00000000       17.3395061       1.57079613    
   3.01776695       3.93283010      -3.00000000       17.3395061       1.57079613    
   3.01776695       3.93283010      -4.00000000       17.3395061       1.57079613    
   2.50000000       4.33012676      -3.00000000       17.3333015       1.57079613    
   2.50000000       4.33012676      -2.00000000       17.3333015       1.57079613    
   3.01776695       3.93283010      -2.00000000       17.3333015       1.57079613    
   3.01776695       3.93283010      -3.00000000       17.3333015       1.57079613    
   2.50000000       4.33012676      -2.00000000       17.3353767       1.57079613    
   2.50000000       4.33012676      -1.00000000       17.3353767       1.57079613    
   3.01776695       3.93283010      -1.00000000       17.3353767       1.57079613    
   3.01776695       3.93283010      -2.00000000       17.3353767       1.57079613    
   2.50000000       4.33012676      -1.00000000       17.2492561       1.57079625    
   2.50000000       4.33012676       0.00000000       17.2492561       1.57079625    
   3.01776695       3.93283010       0.00000000       17.2492561       1.57079625    
   3.01776695       3.93283010      -1.00000000       17.2492561       1.57079625    
   3.01776695       3.93283010      -10.0000000       16.9448719      -1.57079637    
   3.01776695       3.93283010      -9.00000000       16.9448719      -1.57079637    
   3.53553391       3.53553391      -9.00000000       16.9448719      -1.57079637    
   3.53553391       3.53553391      -10.0000000       16.9448719      -1.57079637    
   3.01776695       3.93283010      -9.00000000       17.3288784      -1.57079649    
   3.01776695       3.93283010      -8.00000000       17.3288784      -1.57079649    
   3.53553391       3.53553391      -8.00000000       17.3288784      -1.57079649    
   3.53553391       3.53553391      -9.00000000       17.3288784      -1.57079649    
   3.01776695       3.93283010      -8.00000000       17.3309631      -1.57079637    
   3.01776695       3.93283010      -7.00000000       17.3309631      -1.57079637    
   3.53553391       3.53553391      -7.00000000       17.3309631      -1.57079637    
   3.53553391       3.53553391      -8.00000000       17.3309631      -1.57079637    
   3.01776695       3.93283010      -7.00000000       17.3337479      -1.57079637    
   3.01776695       3.93283010      -6.00000000       17.3337479      -1.57079637    
   3.53553391       3.53553391      -6.00000000       17.3337479      -1.57079637    
   3.53553391       3.53553391      -7.00000000       17.3337479      -1.57079637    
   3.01776695       3.93283010      -6.00000000       17.3269863      -1.57079637    
   3.01776695       3.93283010      -5.00000000       17.3269863      -1.57079637    
   3.53553391       3.53553391      -5.00000000       17.3269863      -1.57079637    
   3.53553391       3.53553391      -6.00000000       17.3269863      -1.57079637    
   3.01776695       3.93283010      -5.00000000       17.3267365      -1.57079637    
   3.01776695       3.93283010      -4.00000000       17.3267365      -1.57079637    
   3.53553391       3.53553391      -4.00000000       17.3267365      -1.57079637    
   3.53553391       3.53553391      -5.00000000       17.3267365      -1.57079637    
   3.01776695       3.93283010      -4.00000000       17.3395901      -1.57079637    
   3.01776695       3.93283010      -3.00000000       17.3395901      -1.57079637    
   3.53553391       3.53553391      -3.00000000       17.3395901      -1.57079637    
   3.53553391       3.53553391      -4.00000000       17.3395901      -1.57079637    
   3.01776695       3.93283010      -3.00000000       17.3334255      -1.57079649    
   3.01776695       3.93283010      -2.00000000       17.3334255      -1.57079649    
   3.53553391       3.53553391      -2.00000000       17.3334255      -1.57079649    
   3.53553391       3.53553391      -3.00000000       17.3334255      -1.57079649    
   3.01776695       3.93283010      -2.00000000       17.3354549      -1.57079637    
   3.01776695       3.93283010      -1.00000000       17.3354549      -1.57079637    
   3.53553391       3.53553391      -1.00000000       17.3354549      -1.57079637    
   3.53553391       3.53553391      -2.00000000       17.3354549      -1.57079637    
   3.01776695       3.93283010      -1.00000000       17.2492886      -1.57079637    
   3.01776695       3.93283010       0.00000000       17.2492886      -1.57079637    
   3.53553391       3.53553391       0.00000000       17.2492886      -1.57079637    
   3.53553391       3.53553391      -1.00000000       17.2492886      -1.57079637    
   1.29409504       4.82962894      -10.0000000       16.9448414       1.57079625    
   1.29409504       4.82962894      -9.00000000       16.9448414       1.57079625    
   1.89704800       4.57987785      -9.00000000       16.9448414       1.57079625    
   1.89704800       4.57987785      -10.0000000       16.9448414       1.57079625    
   1.29409504       4.82962894      -9.00000000       17.3288517       1.57079625    
   1.29409504       4.82962894      -8.00000000       17.3288517       1.57079625    
   1.89704800       4.57987785      -8.00000000       17.3288517       1.57079625    
   1.89704800       4.57987785      -9.00000000       17.3288517       1.57079625    
   1.29409504       4.82962894      -8.00000000       17.3309631       1.57079625    
   1.29409504       4.82962894      -7.00000000       17.3309631       1.57079625    
   1.89704800       4.57987785      -7.00000000       17.3309631       1.57079625    
   1.89704800       4.57987785      -8.00000000       17.3309631       1.57079625    
   1.29409504       4.82962894      -7.00000000       17.3337307       1.57079637    
   1.29409504       4.82962894      -6.00000000       17.3337307       1.57079637    
   1.89704800       4.57987785      -6.00000000       17.3337307       1.57079637    
   1.89704800       4.57987785      -7.00000000       17.3337307       1.57079637    
   1.29409504       4.82962894      -6.00000000       17.3269844       1.57079625    
   1.29409504       4.82962894      -5.00000000       17.3269844       1.57079625    
   1.89704800       4.57987785      -5.00000000       17.3269844       1.57079625    
   1.89704800       4.57987785      -6.00000000       17.3269844       1.57079625    
   1.29409504       4.82962894      -5.00000000       17.3267860       1.57079625    
   1.29409504       4.82962894      -4.00000000       17.3267860       1.57079625    
   1.89704800       4.57987785      -4.00000000       17.3267860       1.57079625    
   1.89704800       4.57987785      -5.00000000       17.3267860       1.57079625    
   1.29409504       4.82962894      -4.00000000       17.3396759       1.57079625    
   1.29409504       4.82962894      -3.00000000       17.3396759       1.57079625    
   1.89704800       4.57987785      -3.00000000       17.3396759       1.57079625    