 VARIABLES="X" "Y" "Z" "abs(p) (Pa)" "angle(p) (rad)"
ZONE N=   1080,E =     600, F=FEPOINT, ET=QUADRILATERAL
   4.82962894       1.29409504      -10.0000000       491.413452      -1.18595672    
   4.82962894       1.29409504      -9.00000000       491.413452      -1.18595672    
   4.91481400      0.647047520      -9.00000000       491.413452      -1.18595672    
   4.91481400      0.647047520      -10.0000000       491.413452      -1.18595672    
   4.82962894       1.29409504      -9.00000000       637.264160      -1.16055501    
   4.82962894       1.29409504      -8.00000000       637.264160      -1.16055501    
   4.91481400      0.647047520      -8.00000000       637.264160      -1.16055501    
   4.91481400      0.647047520      -9.00000000       637.264160      -1.16055501    
   4.82962894       1.29409504      -8.00000000       721.223633      -1.09417474    
   4.82962894       1.29409504      -7.00000000       721.223633      -1.09417474    
   4.91481400      0.647047520      -7.00000000       721.223633      -1.09417474    
   4.91481400      0.647047520      -8.00000000       721.223633      -1.09417474    
   4.82962894       1.29409504      -7.00000000       788.039673      -1.00420094    
   4.82962894       1.29409504      -6.00000000       788.039673      -1.00420094    
   4.91481400      0.647047520      -6.00000000       788.039673      -1.00420094    
   4.91481400      0.647047520      -7.00000000       788.039673      -1.00420094    
   4.82962894       1.29409504      -6.00000000       859.023438     -0.896368623    
   4.82962894       1.29409504      -5.00000000       859.023438     -0.896368623    
   4.91481400      0.647047520      -5.00000000       859.023438     -0.896368623    
   4.91481400      0.647047520      -6.00000000       859.023438     -0.896368623    
   4.82962894       1.29409504      -5.00000000       951.541260     -0.778499305    
   4.82962894       1.29409504      -4.00000000       951.541260     -0.778499305    
   4.91481400      0.647047520      -4.00000000       951.541260     -0.778499305    
   4.91481400      0.647047520      -5.00000000       951.541260     -0.778499305    
   4.82962894       1.29409504      -4.00000000       1081.93567     -0.661863327    
   4.82962894       1.29409504      -3.00000000       1081.93567     -0.661863327    
   4.91481400      0.647047520      -3.00000000       1081.93567     -0.661863327    
   4.91481400      0.647047520      -4.00000000       1081.93567     -0.661863327    
   4.82962894       1.29409504      -3.00000000       1266.15710     -0.558873892    
   4.82962894       1.29409504      -2.00000000       1266.15710     -0.558873892    
   4.91481400      0.647047520      -2.00000000       1266.15710     -0.558873892    
   4.91481400      0.647047520      -3.00000000       1266.15710     -0.558873892    
   4.82962894       1.29409504      -2.00000000       1521.25977     -0.480474472    
   4.82962894       1.29409504      -1.00000000       1521.25977     -0.480474472    
   4.91481400      0.647047520      -1.00000000       1521.25977     -0.480474472    
   4.91481400      0.647047520      -2.00000000       1521.25977     -0.480474472    
   4.82962894       1.29409504      -1.00000000       1867.96094     -0.435416996    
   4.82962894       1.29409504       0.00000000       1867.96094     -0.435416996    
   4.91481400      0.647047520       0.00000000       1867.96094     -0.435416996    
   4.91481400      0.647047520      -1.00000000       1867.96094     -0.435416996    
   4.91481400      0.647047520      -10.0000000       202.449432      -1.24257088    
   4.91481400      0.647047520      -9.00000000       202.449432      -1.24257088    
   5.00000000       0.00000000      -9.00000000       202.449432      -1.24257088    
   5.00000000       0.00000000      -10.0000000       202.449432      -1.24257088    
   4.91481400      0.647047520      -9.00000000       255.509781      -1.20963466    
   4.91481400      0.647047520      -8.00000000       255.509781      -1.20963466    
   5.00000000       0.00000000      -8.00000000       255.509781      -1.20963466    
   5.00000000       0.00000000      -9.00000000       255.509781      -1.20963466    
   4.91481400      0.647047520      -8.00000000       284.628082      -1.14495659    
   4.91481400      0.647047520      -7.00000000       284.628082      -1.14495659    
   5.00000000       0.00000000      -7.00000000       284.628082      -1.14495659    
   5.00000000       0.00000000      -8.00000000       284.628082      -1.14495659    
   4.91481400      0.647047520      -7.00000000       307.153015      -1.05936503    
   4.91481400      0.647047520      -6.00000000       307.153015      -1.05936503    
   5.00000000       0.00000000      -6.00000000       307.153015      -1.05936503    
   5.00000000       0.00000000      -7.00000000       307.153015      -1.05936503    
   4.91481400      0.647047520      -6.00000000       330.552277     -0.956044674    
   4.91481400      0.647047520      -5.00000000       330.552277     -0.956044674    
   5.00000000       0.00000000      -5.00000000       330.552277     -0.956044674    
   5.00000000       0.00000000      -6.00000000       330.552277     -0.956044674    
   4.91481400      0.647047520      -5.00000000       361.115479     -0.840900421    
   4.91481400      0.647047520      -4.00000000       361.115479     -0.840900421    
   5.00000000       0.00000000      -4.00000000       361.115479     -0.840900421    
   5.00000000       0.00000000      -5.00000000       361.115479     -0.840900421    
   4.91481400      0.647047520      -4.00000000       404.826630     -0.723639071    
   4.91481400      0.647047520      -3.00000000       404.826630     -0.723639071    
   5.00000000       0.00000000      -3.00000000       404.826630     -0.723639071    
   5.00000000       0.00000000      -4.00000000       404.826630     -0.723639071    
   4.91481400      0.647047520      -3.00000000       467.664490     -0.616480768    
   4.91481400      0.647047520      -2.00000000       467.664490     -0.616480768    
   5.00000000       0.00000000      -2.00000000       467.664490     -0.616480768    
   5.00000000       0.00000000      -3.00000000       467.664490     -0.616480768    
   4.91481400      0.647047520      -2.00000000       556.173584     -0.531313777    
   4.91481400      0.647047520      -1.00000000       556.173584     -0.531313777    
   5.00000000       0.00000000      -1.00000000       556.173584     -0.531313777    
   5.00000000       0.00000000      -2.00000000       556.173584     -0.531313777    
   4.91481400      0.647047520      -1.00000000       677.657471     -0.478162140    
   4.91481400      0.647047520       0.00000000       677.657471     -0.478162140    
   5.00000000       0.00000000       0.00000000       677.657471     -0.478162140    
   5.00000000       0.00000000      -1.00000000       677.657471     -0.478162140    
   4.33012676       2.50000000      -10.0000000       1151.52039      -1.19590473    
   4.33012676       2.50000000      -9.00000000       1151.52039      -1.19590473    
   4.57987785       1.89704800      -9.00000000       1151.52039      -1.19590473    
   4.57987785       1.89704800      -10.0000000       1151.52039      -1.19590473    
   4.33012676       2.50000000      -9.00000000       1486.35583      -1.16898906    
   4.33012676       2.50000000      -8.00000000       1486.35583      -1.16898906    
   4.57987785       1.89704800      -8.00000000       1486.35583      -1.16898906    
   4.57987785       1.89704800      -9.00000000       1486.35583      -1.16898906    
   4.33012676       2.50000000      -8.00000000       1677.62097      -1.10278630    
   4.33012676       2.50000000      -7.00000000       1677.62097      -1.10278630    
   4.57987785       1.89704800      -7.00000000       1677.62097      -1.10278630    
   4.57987785       1.89704800      -8.00000000       1677.62097      -1.10278630    
   4.33012676       2.50000000      -7.00000000       1829.14087      -1.01346004    
   4.33012676       2.50000000      -6.00000000       1829.14087      -1.01346004    
   4.57987785       1.89704800      -6.00000000       1829.14087      -1.01346004    
   4.57987785       1.89704800      -7.00000000       1829.14087      -1.01346004    
   4.33012676       2.50000000      -6.00000000       1989.56677     -0.906277657    
   4.33012676       2.50000000      -5.00000000       1989.56677     -0.906277657    
   4.57987785       1.89704800      -5.00000000       1989.56677     -0.906277657    
   4.57987785       1.89704800      -6.00000000       1989.56677     -0.906277657    
   4.33012676       2.50000000      -5.00000000       2198.76465     -0.788741112    
   4.33012676       2.50000000      -4.00000000       2198.76465     -0.788741112    
   4.57987785       1.89704800      -4.00000000       2198.76465     -0.788741112    
   4.57987785       1.89704800      -5.00000000       2198.76465     -0.788741112    
   4.33012676       2.50000000      -4.00000000       2494.32129     -0.671882629    
   4.33012676       2.50000000      -3.00000000       2494.32129     -0.671882629    
   4.57987785       1.89704800      -3.00000000       2494.32129     -0.671882629    
   4.57987785       1.89704800      -4.00000000       2494.32129     -0.671882629    
   4.33012676       2.50000000      -3.00000000       2913.04248     -0.568118870    
   4.33012676       2.50000000      -2.00000000       2913.04248     -0.568118870    
   4.57987785       1.89704800      -2.00000000       2913.04248     -0.568118870    
   4.57987785       1.89704800      -3.00000000       2913.04248     -0.568118870    
   4.33012676       2.50000000      -2.00000000       3494.41382     -0.488561541    
   4.33012676       2.50000000      -1.00000000       3494.41382     -0.488561541    
   4.57987785       1.89704800      -1.00000000       3494.41382     -0.488561541    
   4.57987785       1.89704800      -2.00000000       3494.41382     -0.488561541    
   4.33012676       2.50000000      -1.00000000       4285.76709     -0.442173779    
   4.33012676       2.50000000       0.00000000       4285.76709     -0.442173779    
   4.57987785       1.89704800       0.00000000       4285.76709     -0.442173779    
   4.57987785       1.89704800      -1.00000000       4285.76709     -0.442173779    
   4.57987785       1.89704800      -10.0000000       882.166992      -1.21104467    
   4.57987785       1.89704800      -9.00000000       882.166992      -1.21104467    
   4.82962894       1.29409504      -9.00000000       882.166992      -1.21104467    
   4.82962894       1.29409504      -10.0000000       882.166992      -1.21104467    
   4.57987785       1.89704800      -9.00000000       1130.53613      -1.18197751    
   4.57987785       1.89704800      -8.00000000       1130.53613      -1.18197751    
   4.82962894       1.29409504      -8.00000000       1130.53613      -1.18197751    
   4.82962894       1.29409504      -9.00000000       1130.53613      -1.18197751    
   4.57987785       1.89704800      -8.00000000       1270.68066      -1.11614120    
   4.57987785       1.89704800      -7.00000000       1270.68066      -1.11614120    
   4.82962894       1.29409504      -7.00000000       1270.68066      -1.11614120    
   4.82962894       1.29409504      -8.00000000       1270.68066      -1.11614120    
   4.57987785       1.89704800      -7.00000000       1380.89929      -1.02789450    
   4.57987785       1.89704800      -6.00000000       1380.89929      -1.02789450    
   4.82962894       1.29409504      -6.00000000       1380.89929      -1.02789450    
   4.82962894       1.29409504      -7.00000000       1380.89929      -1.02789450    
   4.57987785       1.89704800      -6.00000000       1496.94971     -0.921812057    
   4.57987785       1.89704800      -5.00000000       1496.94971     -0.921812057    
   4.82962894       1.29409504      -5.00000000       1496.94971     -0.921812057    
   4.82962894       1.29409504      -6.00000000       1496.94971     -0.921812057    
   4.57987785       1.89704800      -5.00000000       1648.37659     -0.804895043    
   4.57987785       1.89704800      -4.00000000       1648.37659     -0.804895043    
   4.82962894       1.29409504      -4.00000000       1648.37659     -0.804895043    
   4.82962894       1.29409504      -5.00000000       1648.37659     -0.804895043    
   4.57987785       1.89704800      -4.00000000       1863.13550     -0.687780440    
   4.57987785       1.89704800      -3.00000000       1863.13550     -0.687780440    
   4.82962894       1.29409504      -3.00000000       1863.13550     -0.687780440    
   4.82962894       1.29409504      -4.00000000       1863.13550     -0.687780440    
   4.57987785       1.89704800      -3.00000000       2168.74341     -0.582861543    
   4.57987785       1.89704800      -2.00000000       2168.74341     -0.582861543    
   4.82962894       1.29409504      -2.00000000       2168.74341     -0.582861543    
   4.82962894       1.29409504      -3.00000000       2168.74341     -0.582861543    
   4.57987785       1.89704800      -2.00000000       2594.88647     -0.501516223    
   4.57987785       1.89704800      -1.00000000       2594.88647     -0.501516223    
   4.82962894       1.29409504      -1.00000000       2594.88647     -0.501516223    
   4.82962894       1.29409504      -2.00000000       2594.88647     -0.501516223    
   4.57987785       1.89704800      -1.00000000       3176.39844     -0.453029424    
   4.57987785       1.89704800       0.00000000       3176.39844     -0.453029424    
   4.82962894       1.29409504       0.00000000       3176.39844     -0.453029424    
   4.82962894       1.29409504      -1.00000000       3176.39844     -0.453029424    
   3.53553391       3.53553391      -10.0000000       1733.18396      -1.19872487    
   3.53553391       3.53553391      -9.00000000       1733.18396      -1.19872487    
   3.93283010       3.01776695      -9.00000000       1733.18396      -1.19872487    
   3.93283010       3.01776695      -10.0000000       1733.18396      -1.19872487    
   3.53553391       3.53553391      -9.00000000       2234.18213      -1.17139435    
   3.53553391       3.53553391      -8.00000000       2234.18213      -1.17139435    
   3.93283010       3.01776695      -8.00000000       2234.18213      -1.17139435    
   3.93283010       3.01776695      -9.00000000       2234.18213      -1.17139435    
   3.53553391       3.53553391      -8.00000000       2519.72583      -1.10525167    
   3.53553391       3.53553391      -7.00000000       2519.72583      -1.10525167    
   3.93283010       3.01776695      -7.00000000       2519.72583      -1.10525167    
   3.93283010       3.01776695      -8.00000000       2519.72583      -1.10525167    
   3.53553391       3.53553391      -7.00000000       2745.63257      -1.01611745    
   3.53553391       3.53553391      -6.00000000       2745.63257      -1.01611745    
   3.93283010       3.01776695      -6.00000000       2745.63257      -1.01611745    
   3.93283010       3.01776695      -7.00000000       2745.63257      -1.01611745    
   3.53553391       3.53553391      -6.00000000       2984.57959     -0.909129262    
   3.53553391       3.53553391      -5.00000000       2984.57959     -0.909129262    
   3.93283010       3.01776695      -5.00000000       2984.57959     -0.909129262    
   3.93283010       3.01776695      -6.00000000       2984.57959     -0.909129262    
   3.53553391       3.53553391      -5.00000000       3296.20776     -0.791698098    
   3.53553391       3.53553391      -4.00000000       3296.20776     -0.791698098    
   3.93283010       3.01776695      -4.00000000       3296.20776     -0.791698098    
   3.93283010       3.01776695      -5.00000000       3296.20776     -0.791698098    
   3.53553391       3.53553391      -4.00000000       3736.79175     -0.674784243    
   3.53553391       3.53553391      -3.00000000       3736.79175     -0.674784243    
   3.93283010       3.01776695      -3.00000000       3736.79175     -0.674784243    
   3.93283010       3.01776695      -4.00000000       3736.79175     -0.674784243    
   3.53553391       3.53553391      -3.00000000       4361.47900     -0.570801795    
   3.53553391       3.53553391      -2.00000000       4361.47900     -0.570801795    
   3.93283010       3.01776695      -2.00000000       4361.47900     -0.570801795    
   3.93283010       3.01776695      -3.00000000       4361.47900     -0.570801795    
   3.53553391       3.53553391      -2.00000000       5229.48828     -0.490914881    
   3.53553391       3.53553391      -1.00000000       5229.48828     -0.490914881    
   3.93283010       3.01776695      -1.00000000       5229.48828     -0.490914881    
   3.93283010       3.01776695      -2.00000000       5229.48828     -0.490914881    
   3.53553391       3.53553391      -1.00000000       6411.55029     -0.444142908    
   3.53553391       3.53553391       0.00000000       6411.55029     -0.444142908    
   3.93283010       3.01776695       0.00000000       6411.55029     -0.444142908    
   3.93283010       3.01776695      -1.00000000       6411.55029     -0.444142908    
   3.93283010       3.01776695      -10.0000000       1501.88074      -1.20679617    
   3.93283010       3.01776695      -9.00000000       1501.88074      -1.20679617    
   4.33012676       2.50000000      -9.00000000       1501.88074      -1.20679617    
   4.33012676       2.50000000      -10.0000000       1501.88074      -1.20679617    
   3.93283010       3.01776695      -9.00000000       1928.63037      -1.17831373    
   3.93283010       3.01776695      -8.00000000       1928.63037      -1.17831373    
   4.33012676       2.50000000      -8.00000000       1928.63037      -1.17831373    
   4.33012676       2.50000000      -9.00000000       1928.63037      -1.17831373    
   3.93283010       3.01776695      -8.00000000       2170.27368      -1.11236334    
   3.93283010       3.01776695      -7.00000000       2170.27368      -1.11236334    
   4.33012676       2.50000000      -7.00000000       2170.27368      -1.11236334    
   4.33012676       2.50000000      -8.00000000       2170.27368      -1.11236334    
   3.93283010       3.01776695      -7.00000000       2360.71167      -1.02380145    
   3.93283010       3.01776695      -6.00000000       2360.71167      -1.02380145    
   4.33012676       2.50000000      -6.00000000       2360.71167      -1.02380145    
   4.33012676       2.50000000      -7.00000000       2360.71167      -1.02380145    
   3.93283010       3.01776695      -6.00000000       2561.55127     -0.917396426    
   3.93283010       3.01776695      -5.00000000       2561.55127     -0.917396426    
   4.33012676       2.50000000      -5.00000000       2561.55127     -0.917396426    
   4.33012676       2.50000000      -6.00000000       2561.55127     -0.917396426    
   3.93283010       3.01776695      -5.00000000       2823.57080     -0.800290883    
   3.93283010       3.01776695      -4.00000000       2823.57080     -0.800290883    
   4.33012676       2.50000000      -4.00000000       2823.57080     -0.800290883    
   4.33012676       2.50000000      -5.00000000       2823.57080     -0.800290883    
   3.93283010       3.01776695      -4.00000000       3194.77002     -0.683237910    
   3.93283010       3.01776695      -3.00000000       3194.77002     -0.683237910    
   4.33012676       2.50000000      -3.00000000       3194.77002     -0.683237910    
   4.33012676       2.50000000      -4.00000000       3194.77002     -0.683237910    
   3.93283010       3.01776695      -3.00000000       3722.32227     -0.578638613    
   3.93283010       3.01776695      -2.00000000       3722.32227     -0.578638613    
   4.33012676       2.50000000      -2.00000000       3722.32227     -0.578638613    
   4.33012676       2.50000000      -3.00000000       3722.32227     -0.578638613    
   3.93283010       3.01776695      -2.00000000       4457.03906     -0.497798860    
   3.93283010       3.01776695      -1.00000000       4457.03906     -0.497798860    
   4.33012676       2.50000000      -1.00000000       4457.03906     -0.497798860    
   4.33012676       2.50000000      -2.00000000       4457.03906     -0.497798860    
   3.93283010       3.01776695      -1.00000000       5458.90771     -0.449910313    
   3.93283010       3.01776695       0.00000000       5458.90771     -0.449910313    
   4.33012676       2.50000000       0.00000000       5458.90771     -0.449910313    
   4.33012676       2.50000000      -1.00000000       5458.90771     -0.449910313    
   2.50000000       4.33012676      -10.0000000       2196.74170      -1.20020437    
   2.50000000       4.33012676      -9.00000000       2196.74170      -1.20020437    
   3.01776695       3.93283010      -9.00000000       2196.74170      -1.20020437    
   3.01776695       3.93283010      -10.0000000       2196.74170      -1.20020437    
   2.50000000       4.33012676      -9.00000000       2829.76221      -1.17265844    
   2.50000000       4.33012676      -8.00000000       2829.76221      -1.17265844    
   3.01776695       3.93283010      -8.00000000       2829.76221      -1.17265844    
   3.01776695       3.93283010      -9.00000000       2829.76221      -1.17265844    
   2.50000000       4.33012676      -8.00000000       3190.12378      -1.10654831    
   2.50000000       4.33012676      -7.00000000       3190.12378      -1.10654831    
   3.01776695       3.93283010      -7.00000000       3190.12378      -1.10654831    
   3.01776695       3.93283010      -8.00000000       3190.12378      -1.10654831    
   2.50000000       4.33012676      -7.00000000       3475.02295      -1.01751626    
   2.50000000       4.33012676      -6.00000000       3475.02295      -1.01751626    
   3.01776695       3.93283010      -6.00000000       3475.02295      -1.01751626    
   3.01776695       3.93283010      -7.00000000       3475.02295      -1.01751626    
   2.50000000       4.33012676      -6.00000000       3776.21118     -0.910631776    
   2.50000000       4.33012676      -5.00000000       3776.21118     -0.910631776    
   3.01776695       3.93283010      -5.00000000       3776.21118     -0.910631776    
   3.01776695       3.93283010      -6.00000000       3776.21118     -0.910631776    
   2.50000000       4.33012676      -5.00000000       4169.03857     -0.793257475    
   2.50000000       4.33012676      -4.00000000       4169.03857     -0.793257475    
   3.01776695       3.93283010      -4.00000000       4169.03857     -0.793257475    
   3.01776695       3.93283010      -5.00000000       4169.03857     -0.793257475    
   2.50000000       4.33012676      -4.00000000       4724.62207     -0.676316381    
   2.50000000       4.33012676      -3.00000000       4724.62207     -0.676316381    
   3.01776695       3.93283010      -3.00000000       4724.62207     -0.676316381    
   3.01776695       3.93283010      -4.00000000       4724.62207     -0.676316381    
   2.50000000       4.33012676      -3.00000000       5512.70654     -0.572219610    
   2.50000000       4.33012676      -2.00000000       5512.70654     -0.572219610    
   3.01776695       3.93283010      -2.00000000       5512.70654     -0.572219610    
   3.01776695       3.93283010      -3.00000000       5512.70654     -0.572219610    
   2.50000000       4.33012676      -2.00000000       6608.20410     -0.492158830    
   2.50000000       4.33012676      -1.00000000       6608.20410     -0.492158830    
   3.01776695       3.93283010      -1.00000000       6608.20410     -0.492158830    
   3.01776695       3.93283010      -2.00000000       6608.20410     -0.492158830    
   2.50000000       4.33012676      -1.00000000       8100.42139     -0.445184082    
   2.50000000       4.33012676       0.00000000       8100.42139     -0.445184082    
   3.01776695       3.93283010       0.00000000       8100.42139     -0.445184082    
   3.01776695       3.93283010      -1.00000000       8100.42139     -0.445184082    
   3.01776695       3.93283010      -10.0000000       2019.25635      -1.20493996    
   3.01776695       3.93283010      -9.00000000       2019.25635      -1.20493996    
   3.53553391       3.53553391      -9.00000000       2019.25635      -1.20493996    
   3.53553391       3.53553391      -10.0000000       2019.25635      -1.20493996    
   3.01776695       3.93283010      -9.00000000       2595.30200      -1.17671788    
   3.01776695       3.93283010      -8.00000000       2595.30200      -1.17671788    
   3.53553391       3.53553391      -8.00000000       2595.30200      -1.17671788    
   3.53553391       3.53553391      -9.00000000       2595.30200      -1.17671788    
   3.01776695       3.93283010      -8.00000000       2921.97656      -1.11072016    
   3.01776695       3.93283010      -7.00000000       2921.97656      -1.11072016    
   3.53553391       3.53553391      -7.00000000       2921.97656      -1.11072016    
   3.53553391       3.53553391      -8.00000000       2921.97656      -1.11072016    
   3.01776695       3.93283010      -7.00000000       3179.66284      -1.02202320    
   3.01776695       3.93283010      -6.00000000       3179.66284      -1.02202320    
   3.53553391       3.53553391      -6.00000000       3179.66284      -1.02202320    
   3.53553391       3.53553391      -7.00000000       3179.66284      -1.02202320    
   3.01776695       3.93283010      -6.00000000       3451.60718     -0.915481031    
   3.01776695       3.93283010      -5.00000000       3451.60718     -0.915481031    
   3.53553391       3.53553391      -5.00000000       3451.60718     -0.915481031    
   3.53553391       3.53553391      -6.00000000       3451.60718     -0.915481031    
   3.01776695       3.93283010      -5.00000000       3806.36743     -0.798296690    
   3.01776695       3.93283010      -4.00000000       3806.36743     -0.798296690    
   3.53553391       3.53553391      -4.00000000       3806.36743     -0.798296690    
   3.53553391       3.53553391      -5.00000000       3806.36743     -0.798296690    
   3.01776695       3.93283010      -4.00000000       4308.70996     -0.681273162    
   3.01776695       3.93283010      -3.00000000       4308.70996     -0.681273162    
   3.53553391       3.53553391      -3.00000000       4308.70996     -0.681273162    
   3.53553391       3.53553391      -4.00000000       4308.70996     -0.681273162    
   3.01776695       3.93283010      -3.00000000       5022.25977     -0.576815426    
   3.01776695       3.93283010      -2.00000000       5022.25977     -0.576815426    
   3.53553391       3.53553391      -2.00000000       5022.25977     -0.576815426    
   3.53553391       3.53553391      -3.00000000       5022.25977     -0.576815426    
   3.01776695       3.93283010      -2.00000000       6015.47949     -0.496195853    
   3.01776695       3.93283010      -1.00000000       6015.47949     -0.496195853    
   3.53553391       3.53553391      -1.00000000       6015.47949     -0.496195853    
   3.53553391       3.53553391      -2.00000000       6015.47949     -0.496195853    
   3.01776695       3.93283010      -1.00000000       7369.42578     -0.448565722    
   3.01776695       3.93283010       0.00000000       7369.42578     -0.448565722    
   3.53553391       3.53553391       0.00000000       7369.42578     -0.448565722    
   3.53553391       3.53553391      -1.00000000       7369.42578     -0.448565722    
   1.29409504       4.82962894      -10.0000000       2510.59717      -1.20122433    
   1.29409504       4.82962894      -9.00000000       2510.59717      -1.20122433    
   1.89704800       4.57987785      -9.00000000       2510.59717      -1.20122433    
   1.89704800       4.57987785      -10.0000000       2510.59717      -1.20122433    
   1.29409504       4.82962894      -9.00000000       3232.49902      -1.17353165    
   1.29409504       4.82962894      -8.00000000       3232.49902      -1.17353165    
   1.89704800       4.57987785      -8.00000000       3232.49902      -1.17353165    
   1.89704800       4.57987785      -9.00000000       3232.49902      -1.17353165    
   1.29409504       4.82962894      -8.00000000       3643.12183      -1.10744476    
   1.29409504       4.82962894      -7.00000000       3643.12183      -1.10744476    
   1.89704800       4.57987785      -7.00000000       3643.12183      -1.10744476    
   1.89704800       4.57987785      -8.00000000       3643.12183      -1.10744476    
   1.29409504       4.82962894      -7.00000000       3967.60278      -1.01848400    
   1.29409504       4.82962894      -6.00000000       3967.60278      -1.01848400    
   1.89704800       4.57987785      -6.00000000       3967.60278      -1.01848400    
   1.89704800       4.57987785      -7.00000000       3967.60278      -1.01848400    
   1.29409504       4.82962894      -6.00000000       4310.50439     -0.911672354    
   1.29409504       4.82962894      -5.00000000       4310.50439     -0.911672354    
   1.89704800       4.57987785      -5.00000000       4310.50439     -0.911672354    
   1.89704800       4.57987785      -6.00000000       4310.50439     -0.911672354    
   1.29409504       4.82962894      -5.00000000       4757.75928     -0.794337988    
   1.29409504       4.82962894      -4.00000000       4757.75928     -0.794337988    
   1.89704800       4.57987785      -4.00000000       4757.75928     -0.794337988    
   1.89704800       4.57987785      -5.00000000       4757.75928     -0.794337988    
   1.29409504       4.82962894      -4.00000000       5390.48242     -0.677377820    
   1.29409504       4.82962894      -3.00000000       5390.48242     -0.677377820    
   1.89704800       4.57987785      -3.00000000       5390.48242     -0.677377820    