 VARIABLES="X" "Y" "Z" "abs(p) (Pa)" "angle(p) (rad)"
ZONE N=   1080,E =     600, F=FEPOINT, ET=QUADRILATERAL
   4.82962894       1.29409504      -10.0000000       1407.34094       2.80019021    
   4.82962894       1.29409504      -9.00000000       1407.34094       2.80019021    
   4.91481400      0.647047520      -9.00000000       1407.34094       2.80019021    
   4.91481400      0.647047520      -10.0000000       1407.34094       2.80019021    
   4.82962894       1.29409504      -9.00000000       1744.36133       2.66060591    
   4.82962894       1.29409504      -8.00000000       1744.36133       2.66060591    
   4.91481400      0.647047520      -8.00000000       1744.36133       2.66060591    
   4.91481400      0.647047520      -9.00000000       1744.36133       2.66060591    
   4.82962894       1.29409504      -8.00000000       2071.24585       2.60310793    
   4.82962894       1.29409504      -7.00000000       2071.24585       2.60310793    
   4.91481400      0.647047520      -7.00000000       2071.24585       2.60310793    
   4.91481400      0.647047520      -8.00000000       2071.24585       2.60310793    
   4.82962894       1.29409504      -7.00000000       2412.54639       2.57167983    
   4.82962894       1.29409504      -6.00000000       2412.54639       2.57167983    
   4.91481400      0.647047520      -6.00000000       2412.54639       2.57167983    
   4.91481400      0.647047520      -7.00000000       2412.54639       2.57167983    
   4.82962894       1.29409504      -6.00000000       2780.58691       2.55296540    
   4.82962894       1.29409504      -5.00000000       2780.58691       2.55296540    
   4.91481400      0.647047520      -5.00000000       2780.58691       2.55296540    
   4.91481400      0.647047520      -6.00000000       2780.58691       2.55296540    
   4.82962894       1.29409504      -5.00000000       3184.76538       2.54138589    
   4.82962894       1.29409504      -4.00000000       3184.76538       2.54138589    
   4.91481400      0.647047520      -4.00000000       3184.76538       2.54138589    
   4.91481400      0.647047520      -5.00000000       3184.76538       2.54138589    
   4.82962894       1.29409504      -4.00000000       3632.80444       2.53411460    
   4.82962894       1.29409504      -3.00000000       3632.80444       2.53411460    
   4.91481400      0.647047520      -3.00000000       3632.80444       2.53411460    
   4.91481400      0.647047520      -4.00000000       3632.80444       2.53411460    
   4.82962894       1.29409504      -3.00000000       4131.65869       2.52981043    
   4.82962894       1.29409504      -2.00000000       4131.65869       2.52981043    
   4.91481400      0.647047520      -2.00000000       4131.65869       2.52981043    
   4.91481400      0.647047520      -3.00000000       4131.65869       2.52981043    
   4.82962894       1.29409504      -2.00000000       4689.27783       2.52765894    
   4.82962894       1.29409504      -1.00000000       4689.27783       2.52765894    
   4.91481400      0.647047520      -1.00000000       4689.27783       2.52765894    
   4.91481400      0.647047520      -2.00000000       4689.27783       2.52765894    
   4.82962894       1.29409504      -1.00000000       5310.08057       2.52718544    
   4.82962894       1.29409504       0.00000000       5310.08057       2.52718544    
   4.91481400      0.647047520       0.00000000       5310.08057       2.52718544    
   4.91481400      0.647047520      -1.00000000       5310.08057       2.52718544    
   4.91481400      0.647047520      -10.0000000       1433.40112       2.79701018    
   4.91481400      0.647047520      -9.00000000       1433.40112       2.79701018    
   5.00000000       0.00000000      -9.00000000       1433.40112       2.79701018    
   5.00000000       0.00000000      -10.0000000       1433.40112       2.79701018    
   4.91481400      0.647047520      -9.00000000       1780.37036       2.65931511    
   4.91481400      0.647047520      -8.00000000       1780.37036       2.65931511    
   5.00000000       0.00000000      -8.00000000       1780.37036       2.65931511    
   5.00000000       0.00000000      -9.00000000       1780.37036       2.65931511    
   4.91481400      0.647047520      -8.00000000       2115.31592       2.60263062    
   4.91481400      0.647047520      -7.00000000       2115.31592       2.60263062    
   5.00000000       0.00000000      -7.00000000       2115.31592       2.60263062    
   5.00000000       0.00000000      -8.00000000       2115.31592       2.60263062    
   4.91481400      0.647047520      -7.00000000       2464.52271       2.57162738    
   4.91481400      0.647047520      -6.00000000       2464.52271       2.57162738    
   5.00000000       0.00000000      -6.00000000       2464.52271       2.57162738    
   5.00000000       0.00000000      -7.00000000       2464.52271       2.57162738    
   4.91481400      0.647047520      -6.00000000       2840.85669       2.55315089    
   4.91481400      0.647047520      -5.00000000       2840.85669       2.55315089    
   5.00000000       0.00000000      -5.00000000       2840.85669       2.55315089    
   5.00000000       0.00000000      -6.00000000       2840.85669       2.55315089    
   4.91481400      0.647047520      -5.00000000       3254.00757       2.54170966    
   4.91481400      0.647047520      -4.00000000       3254.00757       2.54170966    
   5.00000000       0.00000000      -4.00000000       3254.00757       2.54170966    
   5.00000000       0.00000000      -5.00000000       3254.00757       2.54170966    
   4.91481400      0.647047520      -4.00000000       3711.92310       2.53452110    
   4.91481400      0.647047520      -3.00000000       3711.92310       2.53452110    
   5.00000000       0.00000000      -3.00000000       3711.92310       2.53452110    
   5.00000000       0.00000000      -4.00000000       3711.92310       2.53452110    
   4.91481400      0.647047520      -3.00000000       4221.73291       2.53025961    
   4.91481400      0.647047520      -2.00000000       4221.73291       2.53025961    
   5.00000000       0.00000000      -2.00000000       4221.73291       2.53025961    
   5.00000000       0.00000000      -3.00000000       4221.73291       2.53025961    
   4.91481400      0.647047520      -2.00000000       4791.55859       2.52812505    
   4.91481400      0.647047520      -1.00000000       4791.55859       2.52812505    
   5.00000000       0.00000000      -1.00000000       4791.55859       2.52812505    
   5.00000000       0.00000000      -2.00000000       4791.55859       2.52812505    
   4.91481400      0.647047520      -1.00000000       5426.00146       2.52763796    
   4.91481400      0.647047520       0.00000000       5426.00146       2.52763796    
   5.00000000       0.00000000       0.00000000       5426.00146       2.52763796    
   5.00000000       0.00000000      -1.00000000       5426.00146       2.52763796    
   4.33012676       2.50000000      -10.0000000       1272.42517       2.82344270    
   4.33012676       2.50000000      -9.00000000       1272.42517       2.82344270    
   4.57987785       1.89704800      -9.00000000       1272.42517       2.82344270    
   4.57987785       1.89704800      -10.0000000       1272.42517       2.82344270    
   4.33012676       2.50000000      -9.00000000       1556.94360       2.67315054    
   4.33012676       2.50000000      -8.00000000       1556.94360       2.67315054    
   4.57987785       1.89704800      -8.00000000       1556.94360       2.67315054    
   4.57987785       1.89704800      -9.00000000       1556.94360       2.67315054    
   4.33012676       2.50000000      -8.00000000       1841.80444       2.61079335    
   4.33012676       2.50000000      -7.00000000       1841.80444       2.61079335    
   4.57987785       1.89704800      -7.00000000       1841.80444       2.61079335    
   4.57987785       1.89704800      -8.00000000       1841.80444       2.61079335    
   4.33012676       2.50000000      -7.00000000       2141.90698       2.57678199    
   4.33012676       2.50000000      -6.00000000       2141.90698       2.57678199    
   4.57987785       1.89704800      -6.00000000       2141.90698       2.57678199    
   4.57987785       1.89704800      -7.00000000       2141.90698       2.57678199    
   4.33012676       2.50000000      -6.00000000       2466.76929       2.55660510    
   4.33012676       2.50000000      -5.00000000       2466.76929       2.55660510    
   4.57987785       1.89704800      -5.00000000       2466.76929       2.55660510    
   4.57987785       1.89704800      -6.00000000       2466.76929       2.55660510    
   4.33012676       2.50000000      -5.00000000       2824.20142       2.54416347    
   4.33012676       2.50000000      -4.00000000       2824.20142       2.54416347    
   4.57987785       1.89704800      -4.00000000       2824.20142       2.54416347    
   4.57987785       1.89704800      -5.00000000       2824.20142       2.54416347    
   4.33012676       2.50000000      -4.00000000       3220.78809       2.53637862    
   4.33012676       2.50000000      -3.00000000       3220.78809       2.53637862    
   4.57987785       1.89704800      -3.00000000       3220.78809       2.53637862    
   4.57987785       1.89704800      -4.00000000       3220.78809       2.53637862    
   4.33012676       2.50000000      -3.00000000       3662.58496       2.53179646    
   4.33012676       2.50000000      -2.00000000       3662.58496       2.53179646    
   4.57987785       1.89704800      -2.00000000       3662.58496       2.53179646    
   4.57987785       1.89704800      -3.00000000       3662.58496       2.53179646    
   4.33012676       2.50000000      -2.00000000       4156.63232       2.52953243    
   4.33012676       2.50000000      -1.00000000       4156.63232       2.52953243    
   4.57987785       1.89704800      -1.00000000       4156.63232       2.52953243    
   4.57987785       1.89704800      -2.00000000       4156.63232       2.52953243    
   4.33012676       2.50000000      -1.00000000       4706.72510       2.52912712    
   4.33012676       2.50000000       0.00000000       4706.72510       2.52912712    
   4.57987785       1.89704800       0.00000000       4706.72510       2.52912712    
   4.57987785       1.89704800      -1.00000000       4706.72510       2.52912712    
   4.57987785       1.89704800      -10.0000000       1347.01611       2.81062055    
   4.57987785       1.89704800      -9.00000000       1347.01611       2.81062055    
   4.82962894       1.29409504      -9.00000000       1347.01611       2.81062055    
   4.82962894       1.29409504      -10.0000000       1347.01611       2.81062055    
   4.57987785       1.89704800      -9.00000000       1660.67627       2.66628385    
   4.57987785       1.89704800      -8.00000000       1660.67627       2.66628385    
   4.82962894       1.29409504      -8.00000000       1660.67627       2.66628385    
   4.82962894       1.29409504      -9.00000000       1660.67627       2.66628385    
   4.57987785       1.89704800      -8.00000000       1969.03125       2.60664153    
   4.57987785       1.89704800      -7.00000000       1969.03125       2.60664153    
   4.82962894       1.29409504      -7.00000000       1969.03125       2.60664153    
   4.82962894       1.29409504      -8.00000000       1969.03125       2.60664153    
   4.57987785       1.89704800      -7.00000000       2292.11890       2.57408309    
   4.57987785       1.89704800      -6.00000000       2292.11890       2.57408309    
   4.82962894       1.29409504      -6.00000000       2292.11890       2.57408309    
   4.82962894       1.29409504      -7.00000000       2292.11890       2.57408309    
   4.57987785       1.89704800      -6.00000000       2641.04834       2.55472875    
   4.57987785       1.89704800      -5.00000000       2641.04834       2.55472875    
   4.82962894       1.29409504      -5.00000000       2641.04834       2.55472875    
   4.82962894       1.29409504      -6.00000000       2641.04834       2.55472875    
   4.57987785       1.89704800      -5.00000000       3024.50171       2.54277158    
   4.57987785       1.89704800      -4.00000000       3024.50171       2.54277158    
   4.82962894       1.29409504      -4.00000000       3024.50171       2.54277158    
   4.82962894       1.29409504      -5.00000000       3024.50171       2.54277158    
   4.57987785       1.89704800      -4.00000000       3449.70703       2.53527665    
   4.57987785       1.89704800      -3.00000000       3449.70703       2.53527665    
   4.82962894       1.29409504      -3.00000000       3449.70703       2.53527665    
   4.82962894       1.29409504      -4.00000000       3449.70703       2.53527665    
   4.57987785       1.89704800      -3.00000000       3923.23926       2.53084850    
   4.57987785       1.89704800      -2.00000000       3923.23926       2.53084850    
   4.82962894       1.29409504      -2.00000000       3923.23926       2.53084850    
   4.82962894       1.29409504      -3.00000000       3923.23926       2.53084850    
   4.57987785       1.89704800      -2.00000000       4452.62891       2.52864766    
   4.57987785       1.89704800      -1.00000000       4452.62891       2.52864766    
   4.82962894       1.29409504      -1.00000000       4452.62891       2.52864766    
   4.82962894       1.29409504      -2.00000000       4452.62891       2.52864766    
   4.57987785       1.89704800      -1.00000000       5042.19141       2.52819467    
   4.57987785       1.89704800       0.00000000       5042.19141       2.52819467    
   4.82962894       1.29409504       0.00000000       5042.19141       2.52819467    
   4.82962894       1.29409504      -1.00000000       5042.19141       2.52819467    
   3.53553391       3.53553391      -10.0000000       1049.23267       2.88876367    
   3.53553391       3.53553391      -9.00000000       1049.23267       2.88876367    
   3.93283010       3.01776695      -9.00000000       1049.23267       2.88876367    
   3.93283010       3.01776695      -10.0000000       1049.23267       2.88876367    
   3.53553391       3.53553391      -9.00000000       1242.22729       2.71821308    
   3.53553391       3.53553391      -8.00000000       1242.22729       2.71821308    
   3.93283010       3.01776695      -8.00000000       1242.22729       2.71821308    
   3.93283010       3.01776695      -9.00000000       1242.22729       2.71821308    
   3.53553391       3.53553391      -8.00000000       1454.55103       2.64528871    
   3.53553391       3.53553391      -7.00000000       1454.55103       2.64528871    
   3.93283010       3.01776695      -7.00000000       1454.55103       2.64528871    
   3.93283010       3.01776695      -8.00000000       1454.55103       2.64528871    
   3.53553391       3.53553391      -7.00000000       1683.98254       2.60538125    
   3.53553391       3.53553391      -6.00000000       1683.98254       2.60538125    
   3.93283010       3.01776695      -6.00000000       1683.98254       2.60538125    
   3.93283010       3.01776695      -7.00000000       1683.98254       2.60538125    
   3.53553391       3.53553391      -6.00000000       1935.05615       2.58177304    
   3.53553391       3.53553391      -5.00000000       1935.05615       2.58177304    
   3.93283010       3.01776695      -5.00000000       1935.05615       2.58177304    
   3.93283010       3.01776695      -6.00000000       1935.05615       2.58177304    
   3.53553391       3.53553391      -5.00000000       2212.78125       2.56727099    
   3.53553391       3.53553391      -4.00000000       2212.78125       2.56727099    
   3.93283010       3.01776695      -4.00000000       2212.78125       2.56727099    
   3.93283010       3.01776695      -5.00000000       2212.78125       2.56727099    
   3.53553391       3.53553391      -4.00000000       2521.75854       2.55824447    
   3.53553391       3.53553391      -3.00000000       2521.75854       2.55824447    
   3.93283010       3.01776695      -3.00000000       2521.75854       2.55824447    
   3.93283010       3.01776695      -4.00000000       2521.75854       2.55824447    
   3.53553391       3.53553391      -3.00000000       2866.51611       2.55298042    
   3.53553391       3.53553391      -2.00000000       2866.51611       2.55298042    
   3.93283010       3.01776695      -2.00000000       2866.51611       2.55298042    
   3.93283010       3.01776695      -3.00000000       2866.51611       2.55298042    
   3.53553391       3.53553391      -2.00000000       3252.54004       2.55043364    
   3.53553391       3.53553391      -1.00000000       3252.54004       2.55043364    
   3.93283010       3.01776695      -1.00000000       3252.54004       2.55043364    
   3.93283010       3.01776695      -2.00000000       3252.54004       2.55043364    
   3.53553391       3.53553391      -1.00000000       3682.67114       2.55017018    
   3.53553391       3.53553391       0.00000000       3682.67114       2.55017018    
   3.93283010       3.01776695       0.00000000       3682.67114       2.55017018    
   3.93283010       3.01776695      -1.00000000       3682.67114       2.55017018    
   3.93283010       3.01776695      -10.0000000       1160.77905       2.85339117    
   3.93283010       3.01776695      -9.00000000       1160.77905       2.85339117    
   4.33012676       2.50000000      -9.00000000       1160.77905       2.85339117    
   4.33012676       2.50000000      -10.0000000       1160.77905       2.85339117    
   3.93283010       3.01776695      -9.00000000       1400.11426       2.69307852    
   3.93283010       3.01776695      -8.00000000       1400.11426       2.69307852    
   4.33012676       2.50000000      -8.00000000       1400.11426       2.69307852    
   4.33012676       2.50000000      -9.00000000       1400.11426       2.69307852    
   3.93283010       3.01776695      -8.00000000       1649.42261       2.62569666    
   3.93283010       3.01776695      -7.00000000       1649.42261       2.62569666    
   4.33012676       2.50000000      -7.00000000       1649.42261       2.62569666    
   4.33012676       2.50000000      -8.00000000       1649.42261       2.62569666    
   3.93283010       3.01776695      -7.00000000       1914.77454       2.58894086    
   3.93283010       3.01776695      -6.00000000       1914.77454       2.58894086    
   4.33012676       2.50000000      -6.00000000       1914.77454       2.58894086    
   4.33012676       2.50000000      -7.00000000       1914.77454       2.58894086    
   3.93283010       3.01776695      -6.00000000       2203.29321       2.56717825    
   3.93283010       3.01776695      -5.00000000       2203.29321       2.56717825    
   4.33012676       2.50000000      -5.00000000       2203.29321       2.56717825    
   4.33012676       2.50000000      -6.00000000       2203.29321       2.56717825    
   3.93283010       3.01776695      -5.00000000       2521.38477       2.55378914    
   3.93283010       3.01776695      -4.00000000       2521.38477       2.55378914    
   4.33012676       2.50000000      -4.00000000       2521.38477       2.55378914    
   4.33012676       2.50000000      -5.00000000       2521.38477       2.55378914    
   3.93283010       3.01776695      -4.00000000       2874.68066       2.54543686    
   3.93283010       3.01776695      -3.00000000       2874.68066       2.54543686    
   4.33012676       2.50000000      -3.00000000       2874.68066       2.54543686    
   4.33012676       2.50000000      -4.00000000       2874.68066       2.54543686    
   3.93283010       3.01776695      -3.00000000       3268.51440       2.54053831    
   3.93283010       3.01776695      -2.00000000       3268.51440       2.54053831    
   4.33012676       2.50000000      -2.00000000       3268.51440       2.54053831    
   4.33012676       2.50000000      -3.00000000       3268.51440       2.54053831    
   3.93283010       3.01776695      -2.00000000       3709.12842       2.53814459    
   3.93283010       3.01776695      -1.00000000       3709.12842       2.53814459    
   4.33012676       2.50000000      -1.00000000       3709.12842       2.53814459    
   4.33012676       2.50000000      -2.00000000       3709.12842       2.53814459    
   3.93283010       3.01776695      -1.00000000       4200.14014       2.53778100    
   3.93283010       3.01776695       0.00000000       4200.14014       2.53778100    
   4.33012676       2.50000000       0.00000000       4200.14014       2.53778100    
   4.33012676       2.50000000      -1.00000000       4200.14014       2.53778100    
   2.50000000       4.33012676      -10.0000000       782.507935       3.05878973    
   2.50000000       4.33012676      -9.00000000       782.507935       3.05878973    
   3.01776695       3.93283010      -9.00000000       782.507935       3.05878973    
   3.01776695       3.93283010      -10.0000000       782.507935       3.05878973    
   2.50000000       4.33012676      -9.00000000       852.004578       2.86859536    
   2.50000000       4.33012676      -8.00000000       852.004578       2.86859536    
   3.01776695       3.93283010      -8.00000000       852.004578       2.86859536    
   3.01776695       3.93283010      -9.00000000       852.004578       2.86859536    
   2.50000000       4.33012676      -8.00000000       967.120239       2.77790546    
   2.50000000       4.33012676      -7.00000000       967.120239       2.77790546    
   3.01776695       3.93283010      -7.00000000       967.120239       2.77790546    
   3.01776695       3.93283010      -8.00000000       967.120239       2.77790546    
   2.50000000       4.33012676      -7.00000000       1103.17834       2.72643709    
   2.50000000       4.33012676      -6.00000000       1103.17834       2.72643709    
   3.01776695       3.93283010      -6.00000000       1103.17834       2.72643709    
   3.01776695       3.93283010      -7.00000000       1103.17834       2.72643709    
   2.50000000       4.33012676      -6.00000000       1257.76965       2.69557381    
   2.50000000       4.33012676      -5.00000000       1257.76965       2.69557381    
   3.01776695       3.93283010      -5.00000000       1257.76965       2.69557381    
   3.01776695       3.93283010      -6.00000000       1257.76965       2.69557381    
   2.50000000       4.33012676      -5.00000000       1431.98157       2.67652082    
   2.50000000       4.33012676      -4.00000000       1431.98157       2.67652082    
   3.01776695       3.93283010      -4.00000000       1431.98157       2.67652082    
   3.01776695       3.93283010      -5.00000000       1431.98157       2.67652082    
   2.50000000       4.33012676      -4.00000000       1627.69788       2.66468143    
   2.50000000       4.33012676      -3.00000000       1627.69788       2.66468143    
   3.01776695       3.93283010      -3.00000000       1627.69788       2.66468143    
   3.01776695       3.93283010      -4.00000000       1627.69788       2.66468143    
   2.50000000       4.33012676      -3.00000000       1847.44019       2.65785503    
   2.50000000       4.33012676      -2.00000000       1847.44019       2.65785503    
   3.01776695       3.93283010      -2.00000000       1847.44019       2.65785503    
   3.01776695       3.93283010      -3.00000000       1847.44019       2.65785503    
   2.50000000       4.33012676      -2.00000000       2094.70166       2.65465283    
   2.50000000       4.33012676      -1.00000000       2094.70166       2.65465283    
   3.01776695       3.93283010      -1.00000000       2094.70166       2.65465283    
   3.01776695       3.93283010      -2.00000000       2094.70166       2.65465283    
   2.50000000       4.33012676      -1.00000000       2371.25635       2.65471053    
   2.50000000       4.33012676       0.00000000       2371.25635       2.65471053    
   3.01776695       3.93283010       0.00000000       2371.25635       2.65471053    
   3.01776695       3.93283010      -1.00000000       2371.25635       2.65471053    
   3.01776695       3.93283010      -10.0000000       906.947693       2.96501422    
   3.01776695       3.93283010      -9.00000000       906.947693       2.96501422    
   3.53553391       3.53553391      -9.00000000       906.947693       2.96501422    
   3.53553391       3.53553391      -10.0000000       906.947693       2.96501422    
   3.01776695       3.93283010      -9.00000000       1035.97571       2.78127146    
   3.01776695       3.93283010      -8.00000000       1035.97571       2.78127146    
   3.53553391       3.53553391      -8.00000000       1035.97571       2.78127146    
   3.53553391       3.53553391      -9.00000000       1035.97571       2.78127146    
   3.01776695       3.93283010      -8.00000000       1198.49768       2.69906545    
   3.01776695       3.93283010      -7.00000000       1198.49768       2.69906545    
   3.53553391       3.53553391      -7.00000000       1198.49768       2.69906545    
   3.53553391       3.53553391      -8.00000000       1198.49768       2.69906545    
   3.01776695       3.93283010      -7.00000000       1379.88171       2.65354943    
   3.01776695       3.93283010      -6.00000000       1379.88171       2.65354943    
   3.53553391       3.53553391      -6.00000000       1379.88171       2.65354943    
   3.53553391       3.53553391      -7.00000000       1379.88171       2.65354943    
   3.01776695       3.93283010      -6.00000000       1581.12805       2.62652874    
   3.01776695       3.93283010      -5.00000000       1581.12805       2.62652874    
   3.53553391       3.53553391      -5.00000000       1581.12805       2.62652874    
   3.53553391       3.53553391      -6.00000000       1581.12805       2.62652874    
   3.01776695       3.93283010      -5.00000000       1805.21643       2.60992932    
   3.01776695       3.93283010      -4.00000000       1805.21643       2.60992932    
   3.53553391       3.53553391      -4.00000000       1805.21643       2.60992932    
   3.53553391       3.53553391      -5.00000000       1805.21643       2.60992932    
   3.01776695       3.93283010      -4.00000000       2055.37354       2.59962225    
   3.01776695       3.93283010      -3.00000000       2055.37354       2.59962225    
   3.53553391       3.53553391      -3.00000000       2055.37354       2.59962225    
   3.53553391       3.53553391      -4.00000000       2055.37354       2.59962225    
   3.01776695       3.93283010      -3.00000000       2335.13696       2.59363866    
   3.01776695       3.93283010      -2.00000000       2335.13696       2.59363866    
   3.53553391       3.53553391      -2.00000000       2335.13696       2.59363866    
   3.53553391       3.53553391      -3.00000000       2335.13696       2.59363866    
   3.01776695       3.93283010      -2.00000000       2648.91699       2.59079123    
   3.01776695       3.93283010      -1.00000000       2648.91699       2.59079123    
   3.53553391       3.53553391      -1.00000000       2648.91699       2.59079123    
   3.53553391       3.53553391      -2.00000000       2648.91699       2.59079123    
   3.01776695       3.93283010      -1.00000000       2999.34717       2.59060311    
   3.01776695       3.93283010       0.00000000       2999.34717       2.59060311    
   3.53553391       3.53553391       0.00000000       2999.34717       2.59060311    
   3.53553391       3.53553391      -1.00000000       2999.34717       2.59060311    
   1.29409504       4.82962894      -10.0000000       570.034363      -2.80653358    
   1.29409504       4.82962894      -9.00000000       570.034363      -2.80653358    
   1.89704800       4.57987785      -9.00000000       570.034363      -2.80653358    
   1.89704800       4.57987785      -10.0000000       570.034363      -2.80653358    
   1.29409504       4.82962894      -9.00000000       521.114990      -2.89374113    
   1.29409504       4.82962894      -8.00000000       521.114990      -2.89374113    
   1.89704800       4.57987785      -8.00000000       521.114990      -2.89374113    
   1.89704800       4.57987785      -9.00000000       521.114990      -2.89374113    
   1.29409504       4.82962894      -8.00000000       535.620117      -2.95510769    
   1.29409504       4.82962894      -7.00000000       535.620117      -2.95510769    
   1.89704800       4.57987785      -7.00000000       535.620117      -2.95510769    
   1.89704800       4.57987785      -8.00000000       535.620117      -2.95510769    
   1.29409504       4.82962894      -7.00000000       575.226868      -2.99762058    
   1.29409504       4.82962894      -6.00000000       575.226868      -2.99762058    
   1.89704800       4.57987785      -6.00000000       575.226868      -2.99762058    
   1.89704800       4.57987785      -7.00000000       575.226868      -2.99762058    
   1.29409504       4.82962894      -6.00000000       631.989624      -3.02634192    
   1.29409504       4.82962894      -5.00000000       631.989624      -3.02634192    
   1.89704800       4.57987785      -5.00000000       631.989624      -3.02634192    
   1.89704800       4.57987785      -6.00000000       631.989624      -3.02634192    
   1.29409504       4.82962894      -5.00000000       703.175171      -3.04543281    
   1.29409504       4.82962894      -4.00000000       703.175171      -3.04543281    
   1.89704800       4.57987785      -4.00000000       703.175171      -3.04543281    
   1.89704800       4.57987785      -5.00000000       703.175171      -3.04543281    
   1.29409504       4.82962894      -4.00000000       787.896118      -3.05766416    
   1.29409504       4.82962894      -3.00000000       787.896118      -3.05766416    
   1.89704800       4.57987785      -3.00000000       787.896118      -3.05766416    