 VARIABLES="X" "Y" "Z" "abs(p) (Pa)" "angle(p) (rad)"
ZONE N=   1080,E =     600, F=FEPOINT, ET=QUADRILATERAL
   4.82962894       1.29409504      -10.0000000       5334.77637     -0.506631076    
   4.82962894       1.29409504      -9.00000000       5334.77637     -0.506631076    
   4.91481400      0.647047520      -9.00000000       5334.77637     -0.506631076    
   4.91481400      0.647047520      -10.0000000       5334.77637     -0.506631076    
   4.82962894       1.29409504      -9.00000000       6862.70459     -0.537054300    
   4.82962894       1.29409504      -8.00000000       6862.70459     -0.537054300    
   4.91481400      0.647047520      -8.00000000       6862.70459     -0.537054300    
   4.91481400      0.647047520      -9.00000000       6862.70459     -0.537054300    
   4.82962894       1.29409504      -8.00000000       9283.90625     -0.704080880    
   4.82962894       1.29409504      -7.00000000       9283.90625     -0.704080880    
   4.91481400      0.647047520      -7.00000000       9283.90625     -0.704080880    
   4.91481400      0.647047520      -8.00000000       9283.90625     -0.704080880    
   4.82962894       1.29409504      -7.00000000       12449.3145     -0.836312413    
   4.82962894       1.29409504      -6.00000000       12449.3145     -0.836312413    
   4.91481400      0.647047520      -6.00000000       12449.3145     -0.836312413    
   4.91481400      0.647047520      -7.00000000       12449.3145     -0.836312413    
   4.82962894       1.29409504      -6.00000000       16201.7773     -0.924849868    
   4.82962894       1.29409504      -5.00000000       16201.7773     -0.924849868    
   4.91481400      0.647047520      -5.00000000       16201.7773     -0.924849868    
   4.91481400      0.647047520      -6.00000000       16201.7773     -0.924849868    
   4.82962894       1.29409504      -5.00000000       20420.0449     -0.981782496    
   4.82962894       1.29409504      -4.00000000       20420.0449     -0.981782496    
   4.91481400      0.647047520      -4.00000000       20420.0449     -0.981782496    
   4.91481400      0.647047520      -5.00000000       20420.0449     -0.981782496    
   4.82962894       1.29409504      -4.00000000       25033.3398      -1.01751781    
   4.82962894       1.29409504      -3.00000000       25033.3398      -1.01751781    
   4.91481400      0.647047520      -3.00000000       25033.3398      -1.01751781    
   4.91481400      0.647047520      -4.00000000       25033.3398      -1.01751781    
   4.82962894       1.29409504      -3.00000000       30009.6895      -1.03884721    
   4.82962894       1.29409504      -2.00000000       30009.6895      -1.03884721    
   4.91481400      0.647047520      -2.00000000       30009.6895      -1.03884721    
   4.91481400      0.647047520      -3.00000000       30009.6895      -1.03884721    
   4.82962894       1.29409504      -2.00000000       35354.6836      -1.05011559    
   4.82962894       1.29409504      -1.00000000       35354.6836      -1.05011559    
   4.91481400      0.647047520      -1.00000000       35354.6836      -1.05011559    
   4.91481400      0.647047520      -2.00000000       35354.6836      -1.05011559    
   4.82962894       1.29409504      -1.00000000       41086.4844      -1.05419004    
   4.82962894       1.29409504       0.00000000       41086.4844      -1.05419004    
   4.91481400      0.647047520       0.00000000       41086.4844      -1.05419004    
   4.91481400      0.647047520      -1.00000000       41086.4844      -1.05419004    
   4.91481400      0.647047520      -10.0000000       5427.80957     -0.507969677    
   4.91481400      0.647047520      -9.00000000       5427.80957     -0.507969677    
   5.00000000       0.00000000      -9.00000000       5427.80957     -0.507969677    
   5.00000000       0.00000000      -10.0000000       5427.80957     -0.507969677    
   4.91481400      0.647047520      -9.00000000       6979.21826     -0.537623107    
   4.91481400      0.647047520      -8.00000000       6979.21826     -0.537623107    
   5.00000000       0.00000000      -8.00000000       6979.21826     -0.537623107    
   5.00000000       0.00000000      -9.00000000       6979.21826     -0.537623107    
   4.91481400      0.647047520      -8.00000000       9438.17969     -0.704066336    
   4.91481400      0.647047520      -7.00000000       9438.17969     -0.704066336    
   5.00000000       0.00000000      -7.00000000       9438.17969     -0.704066336    
   5.00000000       0.00000000      -8.00000000       9438.17969     -0.704066336    
   4.91481400      0.647047520      -7.00000000       12652.6094     -0.836046696    
   4.91481400      0.647047520      -6.00000000       12652.6094     -0.836046696    
   5.00000000       0.00000000      -6.00000000       12652.6094     -0.836046696    
   5.00000000       0.00000000      -7.00000000       12652.6094     -0.836046696    
   4.91481400      0.647047520      -6.00000000       16463.2715     -0.924487531    
   4.91481400      0.647047520      -5.00000000       16463.2715     -0.924487531    
   5.00000000       0.00000000      -5.00000000       16463.2715     -0.924487531    
   5.00000000       0.00000000      -6.00000000       16463.2715     -0.924487531    
   4.91481400      0.647047520      -5.00000000       20747.3027     -0.981386721    
   4.91481400      0.647047520      -4.00000000       20747.3027     -0.981386721    
   5.00000000       0.00000000      -4.00000000       20747.3027     -0.981386721    
   5.00000000       0.00000000      -5.00000000       20747.3027     -0.981386721    
   4.91481400      0.647047520      -4.00000000       25432.7598      -1.01711011    
   4.91481400      0.647047520      -3.00000000       25432.7598      -1.01711011    
   5.00000000       0.00000000      -3.00000000       25432.7598      -1.01711011    
   5.00000000       0.00000000      -4.00000000       25432.7598      -1.01711011    
   4.91481400      0.647047520      -3.00000000       30487.4023      -1.03843737    
   4.91481400      0.647047520      -2.00000000       30487.4023      -1.03843737    
   5.00000000       0.00000000      -2.00000000       30487.4023      -1.03843737    
   5.00000000       0.00000000      -3.00000000       30487.4023      -1.03843737    
   4.91481400      0.647047520      -2.00000000       35916.8555      -1.04970610    
   4.91481400      0.647047520      -1.00000000       35916.8555      -1.04970610    
   5.00000000       0.00000000      -1.00000000       35916.8555      -1.04970610    
   5.00000000       0.00000000      -2.00000000       35916.8555      -1.04970610    
   4.91481400      0.647047520      -1.00000000       41740.1094      -1.05378485    
   4.91481400      0.647047520       0.00000000       41740.1094      -1.05378485    
   5.00000000       0.00000000       0.00000000       41740.1094      -1.05378485    
   5.00000000       0.00000000      -1.00000000       41740.1094      -1.05378485    
   4.33012676       2.50000000      -10.0000000       4878.19434     -0.505141318    
   4.33012676       2.50000000      -9.00000000       4878.19434     -0.505141318    
   4.57987785       1.89704800      -9.00000000       4878.19434     -0.505141318    
   4.57987785       1.89704800      -10.0000000       4878.19434     -0.505141318    
   4.33012676       2.50000000      -9.00000000       6278.50488     -0.536422729    
   4.33012676       2.50000000      -8.00000000       6278.50488     -0.536422729    
   4.57987785       1.89704800      -8.00000000       6278.50488     -0.536422729    
   4.57987785       1.89704800      -9.00000000       6278.50488     -0.536422729    
   4.33012676       2.50000000      -8.00000000       8496.94727     -0.704097867    
   4.33012676       2.50000000      -7.00000000       8496.94727     -0.704097867    
   4.57987785       1.89704800      -7.00000000       8496.94727     -0.704097867    
   4.57987785       1.89704800      -8.00000000       8496.94727     -0.704097867    
   4.33012676       2.50000000      -7.00000000       11397.6270     -0.836607039    
   4.33012676       2.50000000      -6.00000000       11397.6270     -0.836607039    
   4.57987785       1.89704800      -6.00000000       11397.6270     -0.836607039    
   4.57987785       1.89704800      -7.00000000       11397.6270     -0.836607039    
   4.33012676       2.50000000      -6.00000000       14836.1621     -0.925251901    
   4.33012676       2.50000000      -5.00000000       14836.1621     -0.925251901    
   4.57987785       1.89704800      -5.00000000       14836.1621     -0.925251901    
   4.57987785       1.89704800      -6.00000000       14836.1621     -0.925251901    
   4.33012676       2.50000000      -5.00000000       18701.2207     -0.982221305    
   4.33012676       2.50000000      -4.00000000       18701.2207     -0.982221305    
   4.57987785       1.89704800      -4.00000000       18701.2207     -0.982221305    
   4.57987785       1.89704800      -5.00000000       18701.2207     -0.982221305    
   4.33012676       2.50000000      -4.00000000       22927.9453      -1.01797056    
   4.33012676       2.50000000      -3.00000000       22927.9453      -1.01797056    
   4.57987785       1.89704800      -3.00000000       22927.9453      -1.01797056    
   4.57987785       1.89704800      -4.00000000       22927.9453      -1.01797056    
   4.33012676       2.50000000      -3.00000000       27486.8711      -1.03930175    
   4.33012676       2.50000000      -2.00000000       27486.8711      -1.03930175    
   4.57987785       1.89704800      -2.00000000       27486.8711      -1.03930175    
   4.57987785       1.89704800      -3.00000000       27486.8711      -1.03930175    
   4.33012676       2.50000000      -2.00000000       32383.1641      -1.05057013    
   4.33012676       2.50000000      -1.00000000       32383.1641      -1.05057013    
   4.57987785       1.89704800      -1.00000000       32383.1641      -1.05057013    
   4.57987785       1.89704800      -2.00000000       32383.1641      -1.05057013    
   4.33012676       2.50000000      -1.00000000       37632.9258      -1.05463994    
   4.33012676       2.50000000       0.00000000       37632.9258      -1.05463994    
   4.57987785       1.89704800       0.00000000       37632.9258      -1.05463994    
   4.57987785       1.89704800      -1.00000000       37632.9258      -1.05463994    
   4.57987785       1.89704800      -10.0000000       5150.95654     -0.509356141    
   4.57987785       1.89704800      -9.00000000       5150.95654     -0.509356141    
   4.82962894       1.29409504      -9.00000000       5150.95654     -0.509356141    
   4.82962894       1.29409504      -10.0000000       5150.95654     -0.509356141    
   4.57987785       1.89704800      -9.00000000       6620.11572     -0.538211763    
   4.57987785       1.89704800      -8.00000000       6620.11572     -0.538211763    
   4.82962894       1.29409504      -8.00000000       6620.11572     -0.538211763    
   4.82962894       1.29409504      -9.00000000       6620.11572     -0.538211763    
   4.57987785       1.89704800      -8.00000000       8949.25781     -0.704050660    
   4.57987785       1.89704800      -7.00000000       8949.25781     -0.704050660    
   4.82962894       1.29409504      -7.00000000       8949.25781     -0.704050660    
   4.82962894       1.29409504      -8.00000000       8949.25781     -0.704050660    
   4.57987785       1.89704800      -7.00000000       11993.6445     -0.835771680    
   4.57987785       1.89704800      -6.00000000       11993.6445     -0.835771680    
   4.82962894       1.29409504      -6.00000000       11993.6445     -0.835771680    
   4.82962894       1.29409504      -7.00000000       11993.6445     -0.835771680    
   4.57987785       1.89704800      -6.00000000       15602.8193     -0.924111903    
   4.57987785       1.89704800      -5.00000000       15602.8193     -0.924111903    
   4.82962894       1.29409504      -5.00000000       15602.8193     -0.924111903    
   4.82962894       1.29409504      -6.00000000       15602.8193     -0.924111903    
   4.57987785       1.89704800      -5.00000000       19660.6582     -0.980975747    
   4.57987785       1.89704800      -4.00000000       19660.6582     -0.980975747    
   4.82962894       1.29409504      -4.00000000       19660.6582     -0.980975747    
   4.82962894       1.29409504      -5.00000000       19660.6582     -0.980975747    
   4.57987785       1.89704800      -4.00000000       24098.9844      -1.01668644    
   4.57987785       1.89704800      -3.00000000       24098.9844      -1.01668644    
   4.82962894       1.29409504      -3.00000000       24098.9844      -1.01668644    
   4.82962894       1.29409504      -4.00000000       24098.9844      -1.01668644    
   4.57987785       1.89704800      -3.00000000       28887.4746      -1.03801131    
   4.57987785       1.89704800      -2.00000000       28887.4746      -1.03801131    
   4.82962894       1.29409504      -2.00000000       28887.4746      -1.03801131    
   4.82962894       1.29409504      -3.00000000       28887.4746      -1.03801131    
   4.57987785       1.89704800      -2.00000000       34031.3867      -1.04928076    
   4.57987785       1.89704800      -1.00000000       34031.3867      -1.04928076    
   4.82962894       1.29409504      -1.00000000       34031.3867      -1.04928076    
   4.82962894       1.29409504      -2.00000000       34031.3867      -1.04928076    
   4.57987785       1.89704800      -1.00000000       39549.2070      -1.05336356    
   4.57987785       1.89704800       0.00000000       39549.2070      -1.05336356    
   4.82962894       1.29409504       0.00000000       39549.2070      -1.05336356    
   4.82962894       1.29409504      -1.00000000       39549.2070      -1.05336356    
   3.53553391       3.53553391      -10.0000000       4089.18701     -0.503198087    
   3.53553391       3.53553391      -9.00000000       4089.18701     -0.503198087    
   3.93283010       3.01776695      -9.00000000       4089.18701     -0.503198087    
   3.93283010       3.01776695      -10.0000000       4089.18701     -0.503198087    
   3.53553391       3.53553391      -9.00000000       5266.44385     -0.535598755    
   3.53553391       3.53553391      -8.00000000       5266.44385     -0.535598755    
   3.93283010       3.01776695      -8.00000000       5266.44385     -0.535598755    
   3.93283010       3.01776695      -9.00000000       5266.44385     -0.535598755    
   3.53553391       3.53553391      -8.00000000       7130.93848     -0.704119444    
   3.53553391       3.53553391      -7.00000000       7130.93848     -0.704119444    
   3.93283010       3.01776695      -7.00000000       7130.93848     -0.704119444    
   3.93283010       3.01776695      -8.00000000       7130.93848     -0.704119444    
   3.53553391       3.53553391      -7.00000000       9569.21289     -0.836990476    
   3.53553391       3.53553391      -6.00000000       9569.21289     -0.836990476    
   3.93283010       3.01776695      -6.00000000       9569.21289     -0.836990476    
   3.93283010       3.01776695      -7.00000000       9569.21289     -0.836990476    
   3.53553391       3.53553391      -6.00000000       12459.4922     -0.925774157    
   3.53553391       3.53553391      -5.00000000       12459.4922     -0.925774157    
   3.93283010       3.01776695      -5.00000000       12459.4922     -0.925774157    
   3.93283010       3.01776695      -6.00000000       12459.4922     -0.925774157    
   3.53553391       3.53553391      -5.00000000       15707.9268     -0.982791662    
   3.53553391       3.53553391      -4.00000000       15707.9268     -0.982791662    
   3.93283010       3.01776695      -4.00000000       15707.9268     -0.982791662    
   3.93283010       3.01776695      -5.00000000       15707.9268     -0.982791662    
   3.53553391       3.53553391      -4.00000000       19260.0625      -1.01855814    
   3.53553391       3.53553391      -3.00000000       19260.0625      -1.01855814    
   3.93283010       3.01776695      -3.00000000       19260.0625      -1.01855814    
   3.93283010       3.01776695      -4.00000000       19260.0625      -1.01855814    
   3.53553391       3.53553391      -3.00000000       23090.8633      -1.03989291    
   3.53553391       3.53553391      -2.00000000       23090.8633      -1.03989291    
   3.93283010       3.01776695      -2.00000000       23090.8633      -1.03989291    
   3.93283010       3.01776695      -3.00000000       23090.8633      -1.03989291    
   3.53553391       3.53553391      -2.00000000       27204.7539      -1.05116045    
   3.53553391       3.53553391      -1.00000000       27204.7539      -1.05116045    
   3.93283010       3.01776695      -1.00000000       27204.7539      -1.05116045    
   3.93283010       3.01776695      -2.00000000       27204.7539      -1.05116045    
   3.53553391       3.53553391      -1.00000000       31614.7285      -1.05522358    
   3.53553391       3.53553391       0.00000000       31614.7285      -1.05522358    
   3.93283010       3.01776695       0.00000000       31614.7285      -1.05522358    
   3.93283010       3.01776695      -1.00000000       31614.7285      -1.05522358    
   3.93283010       3.01776695      -10.0000000       4523.08740     -0.511019886    
   3.93283010       3.01776695      -9.00000000       4523.08740     -0.511019886    
   4.33012676       2.50000000      -9.00000000       4523.08740     -0.511019886    
   4.33012676       2.50000000      -10.0000000       4523.08740     -0.511019886    
   3.93283010       3.01776695      -9.00000000       5809.86230     -0.538919747    
   3.93283010       3.01776695      -8.00000000       5809.86230     -0.538919747    
   4.33012676       2.50000000      -8.00000000       5809.86230     -0.538919747    
   4.33012676       2.50000000      -9.00000000       5809.86230     -0.538919747    
   3.93283010       3.01776695      -8.00000000       7850.46289     -0.704031825    
   3.93283010       3.01776695      -7.00000000       7850.46289     -0.704031825    
   4.33012676       2.50000000      -7.00000000       7850.46289     -0.704031825    
   4.33012676       2.50000000      -8.00000000       7850.46289     -0.704031825    
   3.93283010       3.01776695      -7.00000000       10517.3398     -0.835439801    
   3.93283010       3.01776695      -6.00000000       10517.3398     -0.835439801    
   4.33012676       2.50000000      -6.00000000       10517.3398     -0.835439801    
   4.33012676       2.50000000      -7.00000000       10517.3398     -0.835439801    
   3.93283010       3.01776695      -6.00000000       13679.0693     -0.923659444    
   3.93283010       3.01776695      -5.00000000       13679.0693     -0.923659444    
   4.33012676       2.50000000      -5.00000000       13679.0693     -0.923659444    
   4.33012676       2.50000000      -6.00000000       13679.0693     -0.923659444    
   3.93283010       3.01776695      -5.00000000       17234.1777     -0.980481565    
   3.93283010       3.01776695      -4.00000000       17234.1777     -0.980481565    
   4.33012676       2.50000000      -4.00000000       17234.1777     -0.980481565    
   4.33012676       2.50000000      -5.00000000       17234.1777     -0.980481565    
   3.93283010       3.01776695      -4.00000000       21122.9023      -1.01617658    
   3.93283010       3.01776695      -3.00000000       21122.9023      -1.01617658    
   4.33012676       2.50000000      -3.00000000       21122.9023      -1.01617658    
   4.33012676       2.50000000      -4.00000000       21122.9023      -1.01617658    
   3.93283010       3.01776695      -3.00000000       25318.9004      -1.03749800    
   3.93283010       3.01776695      -2.00000000       25318.9004      -1.03749800    
   4.33012676       2.50000000      -2.00000000       25318.9004      -1.03749800    
   4.33012676       2.50000000      -3.00000000       25318.9004      -1.03749800    
   3.93283010       3.01776695      -2.00000000       29826.7129      -1.04876876    
   3.93283010       3.01776695      -1.00000000       29826.7129      -1.04876876    
   4.33012676       2.50000000      -1.00000000       29826.7129      -1.04876876    
   4.33012676       2.50000000      -2.00000000       29826.7129      -1.04876876    
   3.93283010       3.01776695      -1.00000000       34663.1055      -1.05285692    
   3.93283010       3.01776695       0.00000000       34663.1055      -1.05285692    
   4.33012676       2.50000000       0.00000000       34663.1055      -1.05285692    
   4.33012676       2.50000000      -1.00000000       34663.1055      -1.05285692    
   2.50000000       4.33012676      -10.0000000       3021.53198     -0.500060976    
   2.50000000       4.33012676      -9.00000000       3021.53198     -0.500060976    
   3.01776695       3.93283010      -9.00000000       3021.53198     -0.500060976    
   3.01776695       3.93283010      -10.0000000       3021.53198     -0.500060976    
   2.50000000       4.33012676      -9.00000000       3895.48828     -0.534271538    
   2.50000000       4.33012676      -8.00000000       3895.48828     -0.534271538    
   3.01776695       3.93283010      -8.00000000       3895.48828     -0.534271538    
   3.01776695       3.93283010      -9.00000000       3895.48828     -0.534271538    
   2.50000000       4.33012676      -8.00000000       5278.96436     -0.704154551    
   2.50000000       4.33012676      -7.00000000       5278.96436     -0.704154551    
   3.01776695       3.93283010      -7.00000000       5278.96436     -0.704154551    
   3.01776695       3.93283010      -8.00000000       5278.96436     -0.704154551    
   2.50000000       4.33012676      -7.00000000       7088.66797     -0.837607086    
   2.50000000       4.33012676      -6.00000000       7088.66797     -0.837607086    
   3.01776695       3.93283010      -6.00000000       7088.66797     -0.837607086    
   3.01776695       3.93283010      -7.00000000       7088.66797     -0.837607086    
   2.50000000       4.33012676      -6.00000000       9233.73047     -0.926613867    
   2.50000000       4.33012676      -5.00000000       9233.73047     -0.926613867    
   3.01776695       3.93283010      -5.00000000       9233.73047     -0.926613867    
   3.01776695       3.93283010      -6.00000000       9233.73047     -0.926613867    
   2.50000000       4.33012676      -5.00000000       11644.1807     -0.983707845    
   2.50000000       4.33012676      -4.00000000       11644.1807     -0.983707845    
   3.01776695       3.93283010      -4.00000000       11644.1807     -0.983707845    
   3.01776695       3.93283010      -5.00000000       11644.1807     -0.983707845    
   2.50000000       4.33012676      -4.00000000       14279.6357      -1.01950312    
   2.50000000       4.33012676      -3.00000000       14279.6357      -1.01950312    
   3.01776695       3.93283010      -3.00000000       14279.6357      -1.01950312    
   3.01776695       3.93283010      -4.00000000       14279.6357      -1.01950312    
   2.50000000       4.33012676      -3.00000000       17121.2734      -1.04084253    
   2.50000000       4.33012676      -2.00000000       17121.2734      -1.04084253    
   3.01776695       3.93283010      -2.00000000       17121.2734      -1.04084253    
   3.01776695       3.93283010      -3.00000000       17121.2734      -1.04084253    
   2.50000000       4.33012676      -2.00000000       20172.4258      -1.05210757    
   2.50000000       4.33012676      -1.00000000       20172.4258      -1.05210757    
   3.01776695       3.93283010      -1.00000000       20172.4258      -1.05210757    
   3.01776695       3.93283010      -2.00000000       20172.4258      -1.05210757    
   2.50000000       4.33012676      -1.00000000       23442.0547      -1.05616164    
   2.50000000       4.33012676       0.00000000       23442.0547      -1.05616164    
   3.01776695       3.93283010       0.00000000       23442.0547      -1.05616164    
   3.01776695       3.93283010      -1.00000000       23442.0547      -1.05616164    
   3.01776695       3.93283010      -10.0000000       3586.99072     -0.513409853    
   3.01776695       3.93283010      -9.00000000       3586.99072     -0.513409853    
   3.53553391       3.53553391      -9.00000000       3586.99072     -0.513409853    
   3.53553391       3.53553391      -10.0000000       3586.99072     -0.513409853    
   3.01776695       3.93283010      -9.00000000       4603.68799     -0.539937437    
   3.01776695       3.93283010      -8.00000000       4603.68799     -0.539937437    
   3.53553391       3.53553391      -8.00000000       4603.68799     -0.539937437    
   3.53553391       3.53553391      -9.00000000       4603.68799     -0.539937437    
   3.01776695       3.93283010      -8.00000000       6216.66650     -0.704004943    
   3.01776695       3.93283010      -7.00000000       6216.66650     -0.704004943    
   3.53553391       3.53553391      -7.00000000       6216.66650     -0.704004943    
   3.53553391       3.53553391      -8.00000000       6216.66650     -0.704004943    
   3.01776695       3.93283010      -7.00000000       8324.29297     -0.834961772    
   3.01776695       3.93283010      -6.00000000       8324.29297     -0.834961772    
   3.53553391       3.53553391      -6.00000000       8324.29297     -0.834961772    
   3.53553391       3.53553391      -7.00000000       8324.29297     -0.834961772    
   3.01776695       3.93283010      -6.00000000       10823.1123     -0.923007429    
   3.01776695       3.93283010      -5.00000000       10823.1123     -0.923007429    
   3.53553391       3.53553391      -5.00000000       10823.1123     -0.923007429    
   3.53553391       3.53553391      -6.00000000       10823.1123     -0.923007429    
   3.01776695       3.93283010      -5.00000000       13633.2227     -0.979769111    
   3.01776695       3.93283010      -4.00000000       13633.2227     -0.979769111    
   3.53553391       3.53553391      -4.00000000       13633.2227     -0.979769111    
   3.53553391       3.53553391      -5.00000000       13633.2227     -0.979769111    
   3.01776695       3.93283010      -4.00000000       16707.3418      -1.01544046    
   3.01776695       3.93283010      -3.00000000       16707.3418      -1.01544046    
   3.53553391       3.53553391      -3.00000000       16707.3418      -1.01544046    
   3.53553391       3.53553391      -4.00000000       16707.3418      -1.01544046    
   3.01776695       3.93283010      -3.00000000       20024.9043      -1.03675842    
   3.01776695       3.93283010      -2.00000000       20024.9043      -1.03675842    
   3.53553391       3.53553391      -2.00000000       20024.9043      -1.03675842    
   3.53553391       3.53553391      -3.00000000       20024.9043      -1.03675842    
   3.01776695       3.93283010      -2.00000000       23589.4336      -1.04802930    
   3.01776695       3.93283010      -1.00000000       23589.4336      -1.04802930    
   3.53553391       3.53553391      -1.00000000       23589.4336      -1.04802930    
   3.53553391       3.53553391      -2.00000000       23589.4336      -1.04802930    
   3.01776695       3.93283010      -1.00000000       27414.7656      -1.05212593    
   3.01776695       3.93283010       0.00000000       27414.7656      -1.05212593    
   3.53553391       3.53553391       0.00000000       27414.7656      -1.05212593    
   3.53553391       3.53553391      -1.00000000       27414.7656      -1.05212593    
   1.29409504       4.82962894      -10.0000000       1748.03088     -0.492722154    
   1.29409504       4.82962894      -9.00000000       1748.03088     -0.492722154    
   1.89704800       4.57987785      -9.00000000       1748.03088     -0.492722154    
   1.89704800       4.57987785      -10.0000000       1748.03088     -0.492722154    
   1.29409504       4.82962894      -9.00000000       2259.07129     -0.531178892    
   1.29409504       4.82962894      -8.00000000       2259.07129     -0.531178892    
   1.89704800       4.57987785      -8.00000000       2259.07129     -0.531178892    
   1.89704800       4.57987785      -9.00000000       2259.07129     -0.531178892    
   1.29409504       4.82962894      -8.00000000       3067.23828     -0.704235852    
   1.29409504       4.82962894      -7.00000000       3067.23828     -0.704235852    
   1.89704800       4.57987785      -7.00000000       3067.23828     -0.704235852    
   1.89704800       4.57987785      -8.00000000       3067.23828     -0.704235852    
   1.29409504       4.82962894      -7.00000000       4125.04639     -0.839037418    
   1.29409504       4.82962894      -6.00000000       4125.04639     -0.839037418    
   1.89704800       4.57987785      -6.00000000       4125.04639     -0.839037418    
   1.89704800       4.57987785      -7.00000000       4125.04639     -0.839037418    
   1.29409504       4.82962894      -6.00000000       5378.71729     -0.928557515    
   1.29409504       4.82962894      -5.00000000       5378.71729     -0.928557515    
   1.89704800       4.57987785      -5.00000000       5378.71729     -0.928557515    
   1.89704800       4.57987785      -6.00000000       5378.71729     -0.928557515    
   1.29409504       4.82962894      -5.00000000       6786.91455     -0.985827804    
   1.29409504       4.82962894      -4.00000000       6786.91455     -0.985827804    
   1.89704800       4.57987785      -4.00000000       6786.91455     -0.985827804    
   1.89704800       4.57987785      -5.00000000       6786.91455     -0.985827804    
   1.29409504       4.82962894      -4.00000000       8326.10645      -1.02168608    
   1.29409504       4.82962894      -3.00000000       8326.10645      -1.02168608    
   1.89704800       4.57987785      -3.00000000       8326.10645      -1.02168608    