 VARIABLES="X" "Y" "Z" "abs(p) (Pa)" "angle(p) (rad)"
ZONE N=   1080,E =     600, F=FEPOINT, ET=QUADRILATERAL
   4.82962894       1.29409504      -10.0000000       130.407974       2.21925640    
   4.82962894       1.29409504      -9.00000000       130.407974       2.21925640    
   4.91481400      0.647047520      -9.00000000       130.407974       2.21925640    
   4.91481400      0.647047520      -10.0000000       130.407974       2.21925640    
   4.82962894       1.29409504      -9.00000000       147.904236       2.02221680    
   4.82962894       1.29409504      -8.00000000       147.904236       2.02221680    
   4.91481400      0.647047520      -8.00000000       147.904236       2.02221680    
   4.91481400      0.647047520      -9.00000000       147.904236       2.02221680    
   4.82962894       1.29409504      -8.00000000       160.646896       1.94014776    
   4.82962894       1.29409504      -7.00000000       160.646896       1.94014776    
   4.91481400      0.647047520      -7.00000000       160.646896       1.94014776    
   4.91481400      0.647047520      -8.00000000       160.646896       1.94014776    
   4.82962894       1.29409504      -7.00000000       170.093521       1.89379227    
   4.82962894       1.29409504      -6.00000000       170.093521       1.89379227    
   4.91481400      0.647047520      -6.00000000       170.093521       1.89379227    
   4.91481400      0.647047520      -7.00000000       170.093521       1.89379227    
   4.82962894       1.29409504      -6.00000000       177.261734       1.86469936    
   4.82962894       1.29409504      -5.00000000       177.261734       1.86469936    
   4.91481400      0.647047520      -5.00000000       177.261734       1.86469936    
   4.91481400      0.647047520      -6.00000000       177.261734       1.86469936    
   4.82962894       1.29409504      -5.00000000       182.795776       1.84520650    
   4.82962894       1.29409504      -4.00000000       182.795776       1.84520650    
   4.91481400      0.647047520      -4.00000000       182.795776       1.84520650    
   4.91481400      0.647047520      -5.00000000       182.795776       1.84520650    
   4.82962894       1.29409504      -4.00000000       187.086655       1.83180618    
   4.82962894       1.29409504      -3.00000000       187.086655       1.83180618    
   4.91481400      0.647047520      -3.00000000       187.086655       1.83180618    
   4.91481400      0.647047520      -4.00000000       187.086655       1.83180618    
   4.82962894       1.29409504      -3.00000000       190.338150       1.82291698    
   4.82962894       1.29409504      -2.00000000       190.338150       1.82291698    
   4.91481400      0.647047520      -2.00000000       190.338150       1.82291698    
   4.91481400      0.647047520      -3.00000000       190.338150       1.82291698    
   4.82962894       1.29409504      -2.00000000       192.726334       1.81744564    
   4.82962894       1.29409504      -1.00000000       192.726334       1.81744564    
   4.91481400      0.647047520      -1.00000000       192.726334       1.81744564    
   4.91481400      0.647047520      -2.00000000       192.726334       1.81744564    
   4.82962894       1.29409504      -1.00000000       194.309174       1.81481695    
   4.82962894       1.29409504       0.00000000       194.309174       1.81481695    
   4.91481400      0.647047520       0.00000000       194.309174       1.81481695    
   4.91481400      0.647047520      -1.00000000       194.309174       1.81481695    
   4.91481400      0.647047520      -10.0000000       131.783936       2.21183109    
   4.91481400      0.647047520      -9.00000000       131.783936       2.21183109    
   5.00000000       0.00000000      -9.00000000       131.783936       2.21183109    
   5.00000000       0.00000000      -10.0000000       131.783936       2.21183109    
   4.91481400      0.647047520      -9.00000000       149.876831       2.01631856    
   4.91481400      0.647047520      -8.00000000       149.876831       2.01631856    
   5.00000000       0.00000000      -8.00000000       149.876831       2.01631856    
   5.00000000       0.00000000      -9.00000000       149.876831       2.01631856    
   4.91481400      0.647047520      -8.00000000       162.945938       1.93516111    
   4.91481400      0.647047520      -7.00000000       162.945938       1.93516111    
   5.00000000       0.00000000      -7.00000000       162.945938       1.93516111    
   5.00000000       0.00000000      -8.00000000       162.945938       1.93516111    
   4.91481400      0.647047520      -7.00000000       172.609039       1.88938093    
   4.91481400      0.647047520      -6.00000000       172.609039       1.88938093    
   5.00000000       0.00000000      -6.00000000       172.609039       1.88938093    
   5.00000000       0.00000000      -7.00000000       172.609039       1.88938093    
   4.91481400      0.647047520      -6.00000000       179.931778       1.86066830    
   4.91481400      0.647047520      -5.00000000       179.931778       1.86066830    
   5.00000000       0.00000000      -5.00000000       179.931778       1.86066830    
   5.00000000       0.00000000      -6.00000000       179.931778       1.86066830    
   4.91481400      0.647047520      -5.00000000       185.579880       1.84143806    
   4.91481400      0.647047520      -4.00000000       185.579880       1.84143806    
   5.00000000       0.00000000      -4.00000000       185.579880       1.84143806    
   5.00000000       0.00000000      -5.00000000       185.579880       1.84143806    
   4.91481400      0.647047520      -4.00000000       189.956772       1.82822096    
   4.91481400      0.647047520      -3.00000000       189.956772       1.82822096    
   5.00000000       0.00000000      -3.00000000       189.956772       1.82822096    
   5.00000000       0.00000000      -4.00000000       189.956772       1.82822096    
   4.91481400      0.647047520      -3.00000000       193.271500       1.81945479    
   4.91481400      0.647047520      -2.00000000       193.271500       1.81945479    
   5.00000000       0.00000000      -2.00000000       193.271500       1.81945479    
   5.00000000       0.00000000      -3.00000000       193.271500       1.81945479    
   4.91481400      0.647047520      -2.00000000       195.704788       1.81405902    
   4.91481400      0.647047520      -1.00000000       195.704788       1.81405902    
   5.00000000       0.00000000      -1.00000000       195.704788       1.81405902    
   5.00000000       0.00000000      -2.00000000       195.704788       1.81405902    
   4.91481400      0.647047520      -1.00000000       197.317703       1.81146514    
   4.91481400      0.647047520       0.00000000       197.317703       1.81146514    
   5.00000000       0.00000000       0.00000000       197.317703       1.81146514    
   5.00000000       0.00000000      -1.00000000       197.317703       1.81146514    
   4.33012676       2.50000000      -10.0000000       122.965584       2.26329470    
   4.33012676       2.50000000      -9.00000000       122.965584       2.26329470    
   4.57987785       1.89704800      -9.00000000       122.965584       2.26329470    
   4.57987785       1.89704800      -10.0000000       122.965584       2.26329470    
   4.33012676       2.50000000      -9.00000000       137.265793       2.05745673    
   4.33012676       2.50000000      -8.00000000       137.265793       2.05745673    
   4.57987785       1.89704800      -8.00000000       137.265793       2.05745673    
   4.57987785       1.89704800      -9.00000000       137.265793       2.05745673    
   4.33012676       2.50000000      -8.00000000       148.291763       1.96995461    
   4.33012676       2.50000000      -7.00000000       148.291763       1.96995461    
   4.57987785       1.89704800      -7.00000000       148.291763       1.96995461    
   4.57987785       1.89704800      -8.00000000       148.291763       1.96995461    
   4.33012676       2.50000000      -7.00000000       156.603348       1.92015517    
   4.33012676       2.50000000      -6.00000000       156.603348       1.92015517    
   4.57987785       1.89704800      -6.00000000       156.603348       1.92015517    
   4.57987785       1.89704800      -7.00000000       156.603348       1.92015517    
   4.33012676       2.50000000      -6.00000000       162.965225       1.88878417    
   4.33012676       2.50000000      -5.00000000       162.965225       1.88878417    
   4.57987785       1.89704800      -5.00000000       162.965225       1.88878417    
   4.57987785       1.89704800      -6.00000000       162.965225       1.88878417    
   4.33012676       2.50000000      -5.00000000       167.902222       1.86772096    
   4.33012676       2.50000000      -4.00000000       167.902222       1.86772096    
   4.57987785       1.89704800      -4.00000000       167.902222       1.86772096    
   4.57987785       1.89704800      -5.00000000       167.902222       1.86772096    
   4.33012676       2.50000000      -4.00000000       171.744034       1.85322285    
   4.33012676       2.50000000      -3.00000000       171.744034       1.85322285    
   4.57987785       1.89704800      -3.00000000       171.744034       1.85322285    
   4.57987785       1.89704800      -4.00000000       171.744034       1.85322285    
   4.33012676       2.50000000      -3.00000000       174.664383       1.84359860    
   4.33012676       2.50000000      -2.00000000       174.664383       1.84359860    
   4.57987785       1.89704800      -2.00000000       174.664383       1.84359860    
   4.57987785       1.89704800      -3.00000000       174.664383       1.84359860    
   4.33012676       2.50000000      -2.00000000       176.817429       1.83767092    
   4.33012676       2.50000000      -1.00000000       176.817429       1.83767092    
   4.57987785       1.89704800      -1.00000000       176.817429       1.83767092    
   4.57987785       1.89704800      -2.00000000       176.817429       1.83767092    
   4.33012676       2.50000000      -1.00000000       178.249023       1.83482623    
   4.33012676       2.50000000       0.00000000       178.249023       1.83482623    
   4.57987785       1.89704800       0.00000000       178.249023       1.83482623    
   4.57987785       1.89704800      -1.00000000       178.249023       1.83482623    
   4.57987785       1.89704800      -10.0000000       126.889412       2.23924971    
   4.57987785       1.89704800      -9.00000000       126.889412       2.23924971    
   4.82962894       1.29409504      -9.00000000       126.889412       2.23924971    
   4.82962894       1.29409504      -10.0000000       126.889412       2.23924971    
   4.57987785       1.89704800      -9.00000000       142.968033       2.03783655    
   4.57987785       1.89704800      -8.00000000       142.968033       2.03783655    
   4.82962894       1.29409504      -8.00000000       142.968033       2.03783655    
   4.82962894       1.29409504      -9.00000000       142.968033       2.03783655    
   4.57987785       1.89704800      -8.00000000       154.968124       1.95320773    
   4.57987785       1.89704800      -7.00000000       154.968124       1.95320773    
   4.82962894       1.29409504      -7.00000000       154.968124       1.95320773    
   4.82962894       1.29409504      -8.00000000       154.968124       1.95320773    
   4.57987785       1.89704800      -7.00000000       163.925247       1.90526974    
   4.57987785       1.89704800      -6.00000000       163.925247       1.90526974    
   4.82962894       1.29409504      -6.00000000       163.925247       1.90526974    
   4.82962894       1.29409504      -7.00000000       163.925247       1.90526974    
   4.57987785       1.89704800      -6.00000000       170.746368       1.87514281    
   4.57987785       1.89704800      -5.00000000       170.746368       1.87514281    
   4.82962894       1.29409504      -5.00000000       170.746368       1.87514281    
   4.82962894       1.29409504      -6.00000000       170.746368       1.87514281    
   4.57987785       1.89704800      -5.00000000       176.022522       1.85494363    
   4.57987785       1.89704800      -4.00000000       176.022522       1.85494363    
   4.82962894       1.29409504      -4.00000000       176.022522       1.85494363    
   4.82962894       1.29409504      -5.00000000       176.022522       1.85494363    
   4.57987785       1.89704800      -4.00000000       180.119400       1.84105170    
   4.57987785       1.89704800      -3.00000000       180.119400       1.84105170    
   4.82962894       1.29409504      -3.00000000       180.119400       1.84105170    
   4.82962894       1.29409504      -4.00000000       180.119400       1.84105170    
   4.57987785       1.89704800      -3.00000000       183.227890       1.83183384    
   4.57987785       1.89704800      -2.00000000       183.227890       1.83183384    
   4.82962894       1.29409504      -2.00000000       183.227890       1.83183384    
   4.82962894       1.29409504      -3.00000000       183.227890       1.83183384    
   4.57987785       1.89704800      -2.00000000       185.513412       1.82615972    
   4.57987785       1.89704800      -1.00000000       185.513412       1.82615972    
   4.82962894       1.29409504      -1.00000000       185.513412       1.82615972    
   4.82962894       1.29409504      -2.00000000       185.513412       1.82615972    
   4.57987785       1.89704800      -1.00000000       187.033707       1.82342982    
   4.57987785       1.89704800       0.00000000       187.033707       1.82342982    
   4.82962894       1.29409504       0.00000000       187.033707       1.82342982    
   4.82962894       1.29409504      -1.00000000       187.033707       1.82342982    
   3.53553391       3.53553391      -10.0000000       110.652283       2.35463071    
   3.53553391       3.53553391      -9.00000000       110.652283       2.35463071    
   3.93283010       3.01776695      -9.00000000       110.652283       2.35463071    
   3.93283010       3.01776695      -10.0000000       110.652283       2.35463071    
   3.53553391       3.53553391      -9.00000000       119.211052       2.13447547    
   3.53553391       3.53553391      -8.00000000       119.211052       2.13447547    
   3.93283010       3.01776695      -8.00000000       119.211052       2.13447547    
   3.93283010       3.01776695      -9.00000000       119.211052       2.13447547    
   3.53553391       3.53553391      -8.00000000       127.139313       2.03635359    
   3.53553391       3.53553391      -7.00000000       127.139313       2.03635359    
   3.93283010       3.01776695      -7.00000000       127.139313       2.03635359    
   3.93283010       3.01776695      -8.00000000       127.139313       2.03635359    
   3.53553391       3.53553391      -7.00000000       133.408585       1.97945774    
   3.53553391       3.53553391      -6.00000000       133.408585       1.97945774    
   3.93283010       3.01776695      -6.00000000       133.408585       1.97945774    
   3.93283010       3.01776695      -7.00000000       133.408585       1.97945774    
   3.53553391       3.53553391      -6.00000000       138.324112       1.94327509    
   3.53553391       3.53553391      -5.00000000       138.324112       1.94327509    
   3.93283010       3.01776695      -5.00000000       138.324112       1.94327509    
   3.93283010       3.01776695      -6.00000000       138.324112       1.94327509    
   3.53553391       3.53553391      -5.00000000       142.193787       1.91884625    
   3.53553391       3.53553391      -4.00000000       142.193787       1.91884625    
   3.93283010       3.01776695      -4.00000000       142.193787       1.91884625    
   3.93283010       3.01776695      -5.00000000       142.193787       1.91884625    
   3.53553391       3.53553391      -4.00000000       145.234634       1.90197468    
   3.53553391       3.53553391      -3.00000000       145.234634       1.90197468    
   3.93283010       3.01776695      -3.00000000       145.234634       1.90197468    
   3.93283010       3.01776695      -4.00000000       145.234634       1.90197468    
   3.53553391       3.53553391      -3.00000000       147.566818       1.89075148    
   3.53553391       3.53553391      -2.00000000       147.566818       1.89075148    
   3.93283010       3.01776695      -2.00000000       147.566818       1.89075148    
   3.93283010       3.01776695      -3.00000000       147.566818       1.89075148    
   3.53553391       3.53553391      -2.00000000       149.302338       1.88383043    
   3.53553391       3.53553391      -1.00000000       149.302338       1.88383043    
   3.93283010       3.01776695      -1.00000000       149.302338       1.88383043    
   3.93283010       3.01776695      -2.00000000       149.302338       1.88383043    
   3.53553391       3.53553391      -1.00000000       150.469620       1.88051128    
   3.53553391       3.53553391       0.00000000       150.469620       1.88051128    
   3.93283010       3.01776695       0.00000000       150.469620       1.88051128    
   3.93283010       3.01776695      -1.00000000       150.469620       1.88051128    
   3.93283010       3.01776695      -10.0000000       116.472954       2.30809212    
   3.93283010       3.01776695      -9.00000000       116.472954       2.30809212    
   4.33012676       2.50000000      -9.00000000       116.472954       2.30809212    
   4.33012676       2.50000000      -10.0000000       116.472954       2.30809212    
   3.93283010       3.01776695      -9.00000000       127.952881       2.09400606    
   3.93283010       3.01776695      -8.00000000       127.952881       2.09400606    
   4.33012676       2.50000000      -8.00000000       127.952881       2.09400606    
   4.33012676       2.50000000      -9.00000000       127.952881       2.09400606    
   3.93283010       3.01776695      -8.00000000       137.495193       2.00099254    
   3.93283010       3.01776695      -7.00000000       137.495193       2.00099254    
   4.33012676       2.50000000      -7.00000000       137.495193       2.00099254    
   4.33012676       2.50000000      -8.00000000       137.495193       2.00099254    
   3.93283010       3.01776695      -7.00000000       144.831985       1.94764936    
   3.93283010       3.01776695      -6.00000000       144.831985       1.94764936    
   4.33012676       2.50000000      -6.00000000       144.831985       1.94764936    
   4.33012676       2.50000000      -7.00000000       144.831985       1.94764936    
   3.93283010       3.01776695      -6.00000000       150.505020       1.91391802    
   3.93283010       3.01776695      -5.00000000       150.505020       1.91391802    
   4.33012676       2.50000000      -5.00000000       150.505020       1.91391802    
   4.33012676       2.50000000      -6.00000000       150.505020       1.91391802    
   3.93283010       3.01776695      -5.00000000       154.932190       1.89122474    
   3.93283010       3.01776695      -4.00000000       154.932190       1.89122474    
   4.33012676       2.50000000      -4.00000000       154.932190       1.89122474    
   4.33012676       2.50000000      -5.00000000       154.932190       1.89122474    
   3.93283010       3.01776695      -4.00000000       158.390778       1.87558520    
   3.93283010       3.01776695      -3.00000000       158.390778       1.87558520    
   4.33012676       2.50000000      -3.00000000       158.390778       1.87558520    
   4.33012676       2.50000000      -4.00000000       158.390778       1.87558520    
   3.93283010       3.01776695      -3.00000000       161.029556       1.86519432    
   3.93283010       3.01776695      -2.00000000       161.029556       1.86519432    
   4.33012676       2.50000000      -2.00000000       161.029556       1.86519432    
   4.33012676       2.50000000      -3.00000000       161.029556       1.86519432    
   3.93283010       3.01776695      -2.00000000       162.981277       1.85879230    
   3.93283010       3.01776695      -1.00000000       162.981277       1.85879230    
   4.33012676       2.50000000      -1.00000000       162.981277       1.85879230    
   4.33012676       2.50000000      -2.00000000       162.981277       1.85879230    
   3.93283010       3.01776695      -1.00000000       164.291306       1.85570955    
   3.93283010       3.01776695       0.00000000       164.291306       1.85570955    
   4.33012676       2.50000000       0.00000000       164.291306       1.85570955    
   4.33012676       2.50000000      -1.00000000       164.291306       1.85570955    
   2.50000000       4.33012676      -10.0000000       95.9048996       2.51524973    
   2.50000000       4.33012676      -9.00000000       95.9048996       2.51524973    
   3.01776695       3.93283010      -9.00000000       95.9048996       2.51524973    
   3.01776695       3.93283010      -10.0000000       95.9048996       2.51524973    
   2.50000000       4.33012676      -9.00000000       96.3786850       2.28530359    
   2.50000000       4.33012676      -8.00000000       96.3786850       2.28530359    
   3.01776695       3.93283010      -8.00000000       96.3786850       2.28530359    
   3.01776695       3.93283010      -9.00000000       96.3786850       2.28530359    
   2.50000000       4.33012676      -8.00000000       99.8138504       2.17217755    
   2.50000000       4.33012676      -7.00000000       99.8138504       2.17217755    
   3.01776695       3.93283010      -7.00000000       99.8138504       2.17217755    
   3.01776695       3.93283010      -8.00000000       99.8138504       2.17217755    
   2.50000000       4.33012676      -7.00000000       103.111351       2.10360026    
   2.50000000       4.33012676      -6.00000000       103.111351       2.10360026    
   3.01776695       3.93283010      -6.00000000       103.111351       2.10360026    
   3.01776695       3.93283010      -7.00000000       103.111351       2.10360026    
   2.50000000       4.33012676      -6.00000000       105.930214       2.05891395    
   2.50000000       4.33012676      -5.00000000       105.930214       2.05891395    
   3.01776695       3.93283010      -5.00000000       105.930214       2.05891395    
   3.01776695       3.93283010      -6.00000000       105.930214       2.05891395    
   2.50000000       4.33012676      -5.00000000       108.258636       2.02829862    
   2.50000000       4.33012676      -4.00000000       108.258636       2.02829862    
   3.01776695       3.93283010      -4.00000000       108.258636       2.02829862    
   3.01776695       3.93283010      -5.00000000       108.258636       2.02829862    
   2.50000000       4.33012676      -4.00000000       110.148827       2.00695610    
   2.50000000       4.33012676      -3.00000000       110.148827       2.00695610    
   3.01776695       3.93283010      -3.00000000       110.148827       2.00695610    
   3.01776695       3.93283010      -4.00000000       110.148827       2.00695610    
   2.50000000       4.33012676      -3.00000000       111.640991       1.99267352    
   2.50000000       4.33012676      -2.00000000       111.640991       1.99267352    
   3.01776695       3.93283010      -2.00000000       111.640991       1.99267352    
   3.01776695       3.93283010      -3.00000000       111.640991       1.99267352    
   2.50000000       4.33012676      -2.00000000       112.785919       1.98383319    
   2.50000000       4.33012676      -1.00000000       112.785919       1.98383319    
   3.01776695       3.93283010      -1.00000000       112.785919       1.98383319    
   3.01776695       3.93283010      -2.00000000       112.785919       1.98383319    
   2.50000000       4.33012676      -1.00000000       113.584938       1.97959650    
   2.50000000       4.33012676       0.00000000       113.584938       1.97959650    
   3.01776695       3.93283010       0.00000000       113.584938       1.97959650    
   3.01776695       3.93283010      -1.00000000       113.584938       1.97959650    
   3.01776695       3.93283010      -10.0000000       102.385345       2.43516469    
   3.01776695       3.93283010      -9.00000000       102.385345       2.43516469    
   3.53553391       3.53553391      -9.00000000       102.385345       2.43516469    
   3.53553391       3.53553391      -10.0000000       102.385345       2.43516469    
   3.01776695       3.93283010      -9.00000000       106.779198       2.20639944    
   3.01776695       3.93283010      -8.00000000       106.779198       2.20639944    
   3.53553391       3.53553391      -8.00000000       106.779198       2.20639944    
   3.53553391       3.53553391      -9.00000000       106.779198       2.20639944    
   3.01776695       3.93283010      -8.00000000       112.468590       2.09959507    
   3.01776695       3.93283010      -7.00000000       112.468590       2.09959507    
   3.53553391       3.53553391      -7.00000000       112.468590       2.09959507    
   3.53553391       3.53553391      -8.00000000       112.468590       2.09959507    
   3.01776695       3.93283010      -7.00000000       117.267754       2.03650093    
   3.01776695       3.93283010      -6.00000000       117.267754       2.03650093    
   3.53553391       3.53553391      -6.00000000       117.267754       2.03650093    
   3.53553391       3.53553391      -7.00000000       117.267754       2.03650093    
   3.01776695       3.93283010      -6.00000000       121.149727       1.99597585    
   3.01776695       3.93283010      -5.00000000       121.149727       1.99597585    
   3.53553391       3.53553391      -5.00000000       121.149727       1.99597585    
   3.53553391       3.53553391      -6.00000000       121.149727       1.99597585    
   3.01776695       3.93283010      -5.00000000       124.258179       1.96846318    
   3.01776695       3.93283010      -4.00000000       124.258179       1.96846318    
   3.53553391       3.53553391      -4.00000000       124.258179       1.96846318    
   3.53553391       3.53553391      -5.00000000       124.258179       1.96846318    
   3.01776695       3.93283010      -4.00000000       126.729668       1.94939518    
   3.01776695       3.93283010      -3.00000000       126.729668       1.94939518    
   3.53553391       3.53553391      -3.00000000       126.729668       1.94939518    
   3.53553391       3.53553391      -4.00000000       126.729668       1.94939518    
   3.01776695       3.93283010      -3.00000000       128.645584       1.93667960    
   3.01776695       3.93283010      -2.00000000       128.645584       1.93667960    
   3.53553391       3.53553391      -2.00000000       128.645584       1.93667960    
   3.53553391       3.53553391      -3.00000000       128.645584       1.93667960    
   3.01776695       3.93283010      -2.00000000       130.086411       1.92882848    
   3.01776695       3.93283010      -1.00000000       130.086411       1.92882848    
   3.53553391       3.53553391      -1.00000000       130.086411       1.92882848    
   3.53553391       3.53553391      -2.00000000       130.086411       1.92882848    
   3.01776695       3.93283010      -1.00000000       131.076889       1.92504072    
   3.01776695       3.93283010       0.00000000       131.076889       1.92504072    
   3.53553391       3.53553391       0.00000000       131.076889       1.92504072    
   3.53553391       3.53553391      -1.00000000       131.076889       1.92504072    
   1.29409504       4.82962894      -10.0000000       82.8674088       2.77493334    
   1.29409504       4.82962894      -9.00000000       82.8674088       2.77493334    
   1.89704800       4.57987785      -9.00000000       82.8674088       2.77493334    
   1.89704800       4.57987785      -10.0000000       82.8674088       2.77493334    
   1.29409504       4.82962894      -9.00000000       74.0336761       2.58126855    
   1.29409504       4.82962894      -8.00000000       74.0336761       2.58126855    
   1.89704800       4.57987785      -8.00000000       74.0336761       2.58126855    
   1.89704800       4.57987785      -9.00000000       74.0336761       2.58126855    
   1.29409504       4.82962894      -8.00000000       71.7340546       2.46620250    
   1.29409504       4.82962894      -7.00000000       71.7340546       2.46620250    
   1.89704800       4.57987785      -7.00000000       71.7340546       2.46620250    
   1.89704800       4.57987785      -8.00000000       71.7340546       2.46620250    
   1.29409504       4.82962894      -7.00000000       71.0863953       2.38842463    
   1.29409504       4.82962894      -6.00000000       71.0863953       2.38842463    
   1.89704800       4.57987785      -6.00000000       71.0863953       2.38842463    
   1.89704800       4.57987785      -7.00000000       71.0863953       2.38842463    
   1.29409504       4.82962894      -6.00000000       71.0825119       2.33414221    
   1.29409504       4.82962894      -5.00000000       71.0825119       2.33414221    
   1.89704800       4.57987785      -5.00000000       71.0825119       2.33414221    
   1.89704800       4.57987785      -6.00000000       71.0825119       2.33414221    
   1.29409504       4.82962894      -5.00000000       71.3288269       2.29523063    
   1.29409504       4.82962894      -4.00000000       71.3288269       2.29523063    
   1.89704800       4.57987785      -4.00000000       71.3288269       2.29523063    
   1.89704800       4.57987785      -5.00000000       71.3288269       2.29523063    
   1.29409504       4.82962894      -4.00000000       71.6677017       2.26726580    
   1.29409504       4.82962894      -3.00000000       71.6677017       2.26726580    
   1.89704800       4.57987785      -3.00000000       71.6677017       2.26726580    