 VARIABLES="X" "Y" "Z" "abs(p) (Pa)" "angle(p) (rad)"
ZONE N=   1080,E =     600, F=FEPOINT, ET=QUADRILATERAL
   4.82962894       1.29409504      -10.0000000       481.166779      -2.10134339    
   4.82962894       1.29409504      -9.00000000       481.166779      -2.10134339    
   4.91481400      0.647047520      -9.00000000       481.166779      -2.10134339    
   4.91481400      0.647047520      -10.0000000       481.166779      -2.10134339    
   4.82962894       1.29409504      -9.00000000       686.563965      -2.16197777    
   4.82962894       1.29409504      -8.00000000       686.563965      -2.16197777    
   4.91481400      0.647047520      -8.00000000       686.563965      -2.16197777    
   4.91481400      0.647047520      -9.00000000       686.563965      -2.16197777    
   4.82962894       1.29409504      -8.00000000       961.447388      -2.18287587    
   4.82962894       1.29409504      -7.00000000       961.447388      -2.18287587    
   4.91481400      0.647047520      -7.00000000       961.447388      -2.18287587    
   4.91481400      0.647047520      -8.00000000       961.447388      -2.18287587    
   4.82962894       1.29409504      -7.00000000       1341.34009      -2.19198275    
   4.82962894       1.29409504      -6.00000000       1341.34009      -2.19198275    
   4.91481400      0.647047520      -6.00000000       1341.34009      -2.19198275    
   4.91481400      0.647047520      -7.00000000       1341.34009      -2.19198275    
   4.82962894       1.29409504      -6.00000000       1869.60474      -2.19583941    
   4.82962894       1.29409504      -5.00000000       1869.60474      -2.19583941    
   4.91481400      0.647047520      -5.00000000       1869.60474      -2.19583941    
   4.91481400      0.647047520      -6.00000000       1869.60474      -2.19583941    
   4.82962894       1.29409504      -5.00000000       2605.86646      -2.19713831    
   4.82962894       1.29409504      -4.00000000       2605.86646      -2.19713831    
   4.91481400      0.647047520      -4.00000000       2605.86646      -2.19713831    
   4.91481400      0.647047520      -5.00000000       2605.86646      -2.19713831    
   4.82962894       1.29409504      -4.00000000       3631.86694      -2.19701242    
   4.82962894       1.29409504      -3.00000000       3631.86694      -2.19701242    
   4.91481400      0.647047520      -3.00000000       3631.86694      -2.19701242    
   4.91481400      0.647047520      -4.00000000       3631.86694      -2.19701242    
   4.82962894       1.29409504      -3.00000000       5061.40234      -2.19583654    
   4.82962894       1.29409504      -2.00000000       5061.40234      -2.19583654    
   4.91481400      0.647047520      -2.00000000       5061.40234      -2.19583654    
   4.91481400      0.647047520      -3.00000000       5061.40234      -2.19583654    
   4.82962894       1.29409504      -2.00000000       7052.55762      -2.19398952    
   4.82962894       1.29409504      -1.00000000       7052.55762      -2.19398952    
   4.91481400      0.647047520      -1.00000000       7052.55762      -2.19398952    
   4.91481400      0.647047520      -2.00000000       7052.55762      -2.19398952    
   4.82962894       1.29409504      -1.00000000       9817.71289      -2.19053793    
   4.82962894       1.29409504       0.00000000       9817.71289      -2.19053793    
   4.91481400      0.647047520       0.00000000       9817.71289      -2.19053793    
   4.91481400      0.647047520      -1.00000000       9817.71289      -2.19053793    
   4.91481400      0.647047520      -10.0000000       499.427704      -2.09265327    
   4.91481400      0.647047520      -9.00000000       499.427704      -2.09265327    
   5.00000000       0.00000000      -9.00000000       499.427704      -2.09265327    
   5.00000000       0.00000000      -10.0000000       499.427704      -2.09265327    
   4.91481400      0.647047520      -9.00000000       715.083984      -2.15235090    
   4.91481400      0.647047520      -8.00000000       715.083984      -2.15235090    
   5.00000000       0.00000000      -8.00000000       715.083984      -2.15235090    
   5.00000000       0.00000000      -9.00000000       715.083984      -2.15235090    
   4.91481400      0.647047520      -8.00000000       1002.42590      -2.17295694    
   4.91481400      0.647047520      -7.00000000       1002.42590      -2.17295694    
   5.00000000       0.00000000      -7.00000000       1002.42590      -2.17295694    
   5.00000000       0.00000000      -8.00000000       1002.42590      -2.17295694    
   4.91481400      0.647047520      -7.00000000       1399.07288      -2.18195868    
   4.91481400      0.647047520      -6.00000000       1399.07288      -2.18195868    
   5.00000000       0.00000000      -6.00000000       1399.07288      -2.18195868    
   5.00000000       0.00000000      -7.00000000       1399.07288      -2.18195868    
   4.91481400      0.647047520      -6.00000000       1950.37598      -2.18579555    
   4.91481400      0.647047520      -5.00000000       1950.37598      -2.18579555    
   5.00000000       0.00000000      -5.00000000       1950.37598      -2.18579555    
   5.00000000       0.00000000      -6.00000000       1950.37598      -2.18579555    
   4.91481400      0.647047520      -5.00000000       2718.57959      -2.18711019    
   4.91481400      0.647047520      -4.00000000       2718.57959      -2.18711019    
   5.00000000       0.00000000      -4.00000000       2718.57959      -2.18711019    
   5.00000000       0.00000000      -5.00000000       2718.57959      -2.18711019    
   4.91481400      0.647047520      -4.00000000       3788.91602      -2.18703008    
   4.91481400      0.647047520      -3.00000000       3788.91602      -2.18703008    
   5.00000000       0.00000000      -3.00000000       3788.91602      -2.18703008    
   5.00000000       0.00000000      -4.00000000       3788.91602      -2.18703008    
   4.91481400      0.647047520      -3.00000000       5280.02344      -2.18593121    
   4.91481400      0.647047520      -2.00000000       5280.02344      -2.18593121    
   5.00000000       0.00000000      -2.00000000       5280.02344      -2.18593121    
   5.00000000       0.00000000      -3.00000000       5280.02344      -2.18593121    
   4.91481400      0.647047520      -2.00000000       7356.64404      -2.18418694    
   4.91481400      0.647047520      -1.00000000       7356.64404      -2.18418694    
   5.00000000       0.00000000      -1.00000000       7356.64404      -2.18418694    
   5.00000000       0.00000000      -2.00000000       7356.64404      -2.18418694    
   4.91481400      0.647047520      -1.00000000       10239.7627      -2.18095565    
   4.91481400      0.647047520       0.00000000       10239.7627      -2.18095565    
   5.00000000       0.00000000       0.00000000       10239.7627      -2.18095565    
   5.00000000       0.00000000      -1.00000000       10239.7627      -2.18095565    
   4.33012676       2.50000000      -10.0000000       392.657043      -2.14022589    
   4.33012676       2.50000000      -9.00000000       392.657043      -2.14022589    
   4.57987785       1.89704800      -9.00000000       392.657043      -2.14022589    
   4.57987785       1.89704800      -10.0000000       392.657043      -2.14022589    
   4.33012676       2.50000000      -9.00000000       547.870911      -2.20594072    
   4.33012676       2.50000000      -8.00000000       547.870911      -2.20594072    
   4.57987785       1.89704800      -8.00000000       547.870911      -2.20594072    
   4.57987785       1.89704800      -9.00000000       547.870911      -2.20594072    
   4.33012676       2.50000000      -8.00000000       762.147217      -2.22857261    
   4.33012676       2.50000000      -7.00000000       762.147217      -2.22857261    
   4.57987785       1.89704800      -7.00000000       762.147217      -2.22857261    
   4.57987785       1.89704800      -8.00000000       762.147217      -2.22857261    
   4.33012676       2.50000000      -7.00000000       1060.54797      -2.23830080    
   4.33012676       2.50000000      -6.00000000       1060.54797      -2.23830080    
   4.57987785       1.89704800      -6.00000000       1060.54797      -2.23830080    
   4.57987785       1.89704800      -7.00000000       1060.54797      -2.23830080    
   4.33012676       2.50000000      -6.00000000       1476.73975      -2.24227405    
   4.33012676       2.50000000      -5.00000000       1476.73975      -2.24227405    
   4.57987785       1.89704800      -5.00000000       1476.73975      -2.24227405    
   4.57987785       1.89704800      -6.00000000       1476.73975      -2.24227405    
   4.33012676       2.50000000      -5.00000000       2057.59839      -2.24346328    
   4.33012676       2.50000000      -4.00000000       2057.59839      -2.24346328    
   4.57987785       1.89704800      -4.00000000       2057.59839      -2.24346328    
   4.57987785       1.89704800      -5.00000000       2057.59839      -2.24346328    
   4.33012676       2.50000000      -4.00000000       2867.82666      -2.24303842    
   4.33012676       2.50000000      -3.00000000       2867.82666      -2.24303842    
   4.57987785       1.89704800      -3.00000000       2867.82666      -2.24303842    
   4.57987785       1.89704800      -4.00000000       2867.82666      -2.24303842    
   4.33012676       2.50000000      -3.00000000       3997.76465      -2.24138165    
   4.33012676       2.50000000      -2.00000000       3997.76465      -2.24138165    
   4.57987785       1.89704800      -2.00000000       3997.76465      -2.24138165    
   4.57987785       1.89704800      -3.00000000       3997.76465      -2.24138165    
   4.33012676       2.50000000      -2.00000000       5573.11572      -2.23888087    
   4.33012676       2.50000000      -1.00000000       5573.11572      -2.23888087    
   4.57987785       1.89704800      -1.00000000       5573.11572      -2.23888087    
   4.57987785       1.89704800      -2.00000000       5573.11572      -2.23888087    
   4.33012676       2.50000000      -1.00000000       7765.59326      -2.23409367    
   4.33012676       2.50000000       0.00000000       7765.59326      -2.23409367    
   4.57987785       1.89704800       0.00000000       7765.59326      -2.23409367    
   4.57987785       1.89704800      -1.00000000       7765.59326      -2.23409367    
   4.57987785       1.89704800      -10.0000000       442.019531      -2.11568117    
   4.57987785       1.89704800      -9.00000000       442.019531      -2.11568117    
   4.82962894       1.29409504      -9.00000000       442.019531      -2.11568117    
   4.82962894       1.29409504      -10.0000000       442.019531      -2.11568117    
   4.57987785       1.89704800      -9.00000000       624.892395      -2.17842078    
   4.57987785       1.89704800      -8.00000000       624.892395      -2.17842078    
   4.82962894       1.29409504      -8.00000000       624.892395      -2.17842078    
   4.82962894       1.29409504      -9.00000000       624.892395      -2.17842078    
   4.57987785       1.89704800      -8.00000000       872.787354      -2.20004582    
   4.57987785       1.89704800      -7.00000000       872.787354      -2.20004582    
   4.82962894       1.29409504      -7.00000000       872.787354      -2.20004582    
   4.82962894       1.29409504      -8.00000000       872.787354      -2.20004582    
   4.57987785       1.89704800      -7.00000000       1216.41064      -2.20940781    
   4.57987785       1.89704800      -6.00000000       1216.41064      -2.20940781    
   4.82962894       1.29409504      -6.00000000       1216.41064      -2.20940781    
   4.82962894       1.29409504      -7.00000000       1216.41064      -2.20940781    
   4.57987785       1.89704800      -6.00000000       1694.80298      -2.21331692    
   4.57987785       1.89704800      -5.00000000       1694.80298      -2.21331692    
   4.82962894       1.29409504      -5.00000000       1694.80298      -2.21331692    
   4.82962894       1.29409504      -6.00000000       1694.80298      -2.21331692    
   4.57987785       1.89704800      -5.00000000       2361.90918      -2.21457624    
   4.57987785       1.89704800      -4.00000000       2361.90918      -2.21457624    
   4.82962894       1.29409504      -4.00000000       2361.90918      -2.21457624    
   4.82962894       1.29409504      -5.00000000       2361.90918      -2.21457624    
   4.57987785       1.89704800      -4.00000000       3291.84595      -2.21433139    
   4.57987785       1.89704800      -3.00000000       3291.84595      -2.21433139    
   4.82962894       1.29409504      -3.00000000       3291.84595      -2.21433139    
   4.82962894       1.29409504      -4.00000000       3291.84595      -2.21433139    
   4.57987785       1.89704800      -3.00000000       4588.06494      -2.21297145    
   4.57987785       1.89704800      -2.00000000       4588.06494      -2.21297145    
   4.82962894       1.29409504      -2.00000000       4588.06494      -2.21297145    
   4.82962894       1.29409504      -3.00000000       4588.06494      -2.21297145    
   4.57987785       1.89704800      -2.00000000       6394.22168      -2.21086597    
   4.57987785       1.89704800      -1.00000000       6394.22168      -2.21086597    
   4.82962894       1.29409504      -1.00000000       6394.22168      -2.21086597    
   4.82962894       1.29409504      -2.00000000       6394.22168      -2.21086597    
   4.57987785       1.89704800      -1.00000000       8905.27539      -2.20690370    
   4.57987785       1.89704800       0.00000000       8905.27539      -2.20690370    
   4.82962894       1.29409504       0.00000000       8905.27539      -2.20690370    
   4.82962894       1.29409504      -1.00000000       8905.27539      -2.20690370    
   3.53553391       3.53553391      -10.0000000       260.238617      -2.19325233    
   3.53553391       3.53553391      -9.00000000       260.238617      -2.19325233    
   3.93283010       3.01776695      -9.00000000       260.238617      -2.19325233    
   3.93283010       3.01776695      -10.0000000       260.238617      -2.19325233    
   3.53553391       3.53553391      -9.00000000       340.488312      -2.26718402    
   3.53553391       3.53553391      -8.00000000       340.488312      -2.26718402    
   3.93283010       3.01776695      -8.00000000       340.488312      -2.26718402    
   3.93283010       3.01776695      -9.00000000       340.488312      -2.26718402    
   3.53553391       3.53553391      -8.00000000       464.165741      -2.29347229    
   3.53553391       3.53553391      -7.00000000       464.165741      -2.29347229    
   3.93283010       3.01776695      -7.00000000       464.165741      -2.29347229    
   3.93283010       3.01776695      -8.00000000       464.165741      -2.29347229    
   3.53553391       3.53553391      -7.00000000       640.710876      -2.30452585    
   3.53553391       3.53553391      -6.00000000       640.710876      -2.30452585    
   3.93283010       3.01776695      -6.00000000       640.710876      -2.30452585    
   3.93283010       3.01776695      -7.00000000       640.710876      -2.30452585    
   3.53553391       3.53553391      -6.00000000       889.299438      -2.30861592    
   3.53553391       3.53553391      -5.00000000       889.299438      -2.30861592    
   3.93283010       3.01776695      -5.00000000       889.299438      -2.30861592    
   3.93283010       3.01776695      -6.00000000       889.299438      -2.30861592    
   3.53553391       3.53553391      -5.00000000       1237.75391      -2.30935073    
   3.53553391       3.53553391      -4.00000000       1237.75391      -2.30935073    
   3.93283010       3.01776695      -4.00000000       1237.75391      -2.30935073    
   3.93283010       3.01776695      -5.00000000       1237.75391      -2.30935073    
   3.53553391       3.53553391      -4.00000000       1725.28479      -2.30797648    
   3.53553391       3.53553391      -3.00000000       1725.28479      -2.30797648    
   3.93283010       3.01776695      -3.00000000       1725.28479      -2.30797648    
   3.93283010       3.01776695      -4.00000000       1725.28479      -2.30797648    
   3.53553391       3.53553391      -3.00000000       2407.15332      -2.30486059    
   3.53553391       3.53553391      -2.00000000       2407.15332      -2.30486059    
   3.93283010       3.01776695      -2.00000000       2407.15332      -2.30486059    
   3.93283010       3.01776695      -3.00000000       2407.15332      -2.30486059    
   3.53553391       3.53553391      -2.00000000       3360.68262      -2.30043554    
   3.53553391       3.53553391      -1.00000000       3360.68262      -2.30043554    
   3.93283010       3.01776695      -1.00000000       3360.68262      -2.30043554    
   3.93283010       3.01776695      -2.00000000       3360.68262      -2.30043554    
   3.53553391       3.53553391      -1.00000000       4697.32422      -2.29184294    
   3.53553391       3.53553391       0.00000000       4697.32422      -2.29184294    
   3.93283010       3.01776695       0.00000000       4697.32422      -2.29184294    
   3.93283010       3.01776695      -1.00000000       4697.32422      -2.29184294    
   3.93283010       3.01776695      -10.0000000       326.145721      -2.16191268    
   3.93283010       3.01776695      -9.00000000       326.145721      -2.16191268    
   4.33012676       2.50000000      -9.00000000       326.145721      -2.16191268    
   4.33012676       2.50000000      -10.0000000       326.145721      -2.16191268    
   3.93283010       3.01776695      -9.00000000       443.130951      -2.23145866    
   3.93283010       3.01776695      -8.00000000       443.130951      -2.23145866    
   4.33012676       2.50000000      -8.00000000       443.130951      -2.23145866    
   4.33012676       2.50000000      -9.00000000       443.130951      -2.23145866    
   3.93283010       3.01776695      -8.00000000       611.564331      -2.25573087    
   3.93283010       3.01776695      -7.00000000       611.564331      -2.25573087    
   4.33012676       2.50000000      -7.00000000       611.564331      -2.25573087    
   4.33012676       2.50000000      -8.00000000       611.564331      -2.25573087    
   3.93283010       3.01776695      -7.00000000       848.349243      -2.26604104    
   3.93283010       3.01776695      -6.00000000       848.349243      -2.26604104    
   4.33012676       2.50000000      -6.00000000       848.349243      -2.26604104    
   4.33012676       2.50000000      -7.00000000       848.349243      -2.26604104    
   3.93283010       3.01776695      -6.00000000       1179.81213      -2.27009273    
   3.93283010       3.01776695      -5.00000000       1179.81213      -2.27009273    
   4.33012676       2.50000000      -5.00000000       1179.81213      -2.27009273    
   4.33012676       2.50000000      -6.00000000       1179.81213      -2.27009273    
   3.93283010       3.01776695      -5.00000000       1643.18628      -2.27112174    
   3.93283010       3.01776695      -4.00000000       1643.18628      -2.27112174    
   4.33012676       2.50000000      -4.00000000       1643.18628      -2.27112174    
   4.33012676       2.50000000      -5.00000000       1643.18628      -2.27112174    
   3.93283010       3.01776695      -4.00000000       2290.22217      -2.27032399    
   3.93283010       3.01776695      -3.00000000       2290.22217      -2.27032399    
   4.33012676       2.50000000      -3.00000000       2290.22217      -2.27032399    
   4.33012676       2.50000000      -4.00000000       2290.22217      -2.27032399    
   3.93283010       3.01776695      -3.00000000       3193.67651      -2.26811361    
   3.93283010       3.01776695      -2.00000000       3193.67651      -2.26811361    
   4.33012676       2.50000000      -2.00000000       3193.67651      -2.26811361    
   4.33012676       2.50000000      -3.00000000       3193.67651      -2.26811361    
   3.93283010       3.01776695      -2.00000000       4454.75830      -2.26485968    
   3.93283010       3.01776695      -1.00000000       4454.75830      -2.26485968    
   4.33012676       2.50000000      -1.00000000       4454.75830      -2.26485968    
   4.33012676       2.50000000      -2.00000000       4454.75830      -2.26485968    
   3.93283010       3.01776695      -1.00000000       6215.76025      -2.25863290    
   3.93283010       3.01776695       0.00000000       6215.76025      -2.25863290    
   4.33012676       2.50000000       0.00000000       6215.76025      -2.25863290    
   4.33012676       2.50000000      -1.00000000       6215.76025      -2.25863290    
   2.50000000       4.33012676      -10.0000000       123.538742      -2.16824722    
   2.50000000       4.33012676      -9.00000000       123.538742      -2.16824722    
   3.01776695       3.93283010      -9.00000000       123.538742      -2.16824722    
   3.01776695       3.93283010      -10.0000000       123.538742      -2.16824722    
   2.50000000       4.33012676      -9.00000000       127.074203      -2.20156455    
   2.50000000       4.33012676      -8.00000000       127.074203      -2.20156455    
   3.01776695       3.93283010      -8.00000000       127.074203      -2.20156455    
   3.01776695       3.93283010      -9.00000000       127.074203      -2.20156455    
   2.50000000       4.33012676      -8.00000000       157.473068      -2.21552896    
   2.50000000       4.33012676      -7.00000000       157.473068      -2.21552896    
   3.01776695       3.93283010      -7.00000000       157.473068      -2.21552896    
   3.01776695       3.93283010      -8.00000000       157.473068      -2.21552896    
   2.50000000       4.33012676      -7.00000000       208.539734      -2.22019649    
   2.50000000       4.33012676      -6.00000000       208.539734      -2.22019649    
   3.01776695       3.93283010      -6.00000000       208.539734      -2.22019649    
   3.01776695       3.93283010      -7.00000000       208.539734      -2.22019649    
   2.50000000       4.33012676      -6.00000000       284.665070      -2.21924210    
   2.50000000       4.33012676      -5.00000000       284.665070      -2.21924210    
   3.01776695       3.93283010      -5.00000000       284.665070      -2.21924210    
   3.01776695       3.93283010      -6.00000000       284.665070      -2.21924210    
   2.50000000       4.33012676      -5.00000000       394.161163      -2.21539736    
   2.50000000       4.33012676      -4.00000000       394.161163      -2.21539736    
   3.01776695       3.93283010      -4.00000000       394.161163      -2.21539736    
   3.01776695       3.93283010      -5.00000000       394.161163      -2.21539736    
   2.50000000       4.33012676      -4.00000000       550.234314      -2.20893717    
   2.50000000       4.33012676      -3.00000000       550.234314      -2.20893717    
   3.01776695       3.93283010      -3.00000000       550.234314      -2.20893717    
   3.01776695       3.93283010      -4.00000000       550.234314      -2.20893717    
   2.50000000       4.33012676      -3.00000000       772.489319      -2.19950867    
   2.50000000       4.33012676      -2.00000000       772.489319      -2.19950867    
   3.01776695       3.93283010      -2.00000000       772.489319      -2.19950867    
   3.01776695       3.93283010      -3.00000000       772.489319      -2.19950867    
   2.50000000       4.33012676      -2.00000000       1089.24451      -2.18769765    
   2.50000000       4.33012676      -1.00000000       1089.24451      -2.18769765    
   3.01776695       3.93283010      -1.00000000       1089.24451      -2.18769765    
   3.01776695       3.93283010      -2.00000000       1089.24451      -2.18769765    
   2.50000000       4.33012676      -1.00000000       1553.98865      -2.16598392    
   2.50000000       4.33012676       0.00000000       1553.98865      -2.16598392    
   3.01776695       3.93283010       0.00000000       1553.98865      -2.16598392    
   3.01776695       3.93283010      -1.00000000       1553.98865      -2.16598392    
   3.01776695       3.93283010      -10.0000000       186.493790      -2.18927455    
   3.01776695       3.93283010      -9.00000000       186.493790      -2.18927455    
   3.53553391       3.53553391      -9.00000000       186.493790      -2.18927455    
   3.53553391       3.53553391      -10.0000000       186.493790      -2.18927455    
   3.01776695       3.93283010      -9.00000000       224.402588      -2.25808811    
   3.01776695       3.93283010      -8.00000000       224.402588      -2.25808811    
   3.53553391       3.53553391      -8.00000000       224.402588      -2.25808811    
   3.53553391       3.53553391      -9.00000000       224.402588      -2.25808811    
   3.01776695       3.93283010      -8.00000000       297.142975      -2.28470278    
   3.01776695       3.93283010      -7.00000000       297.142975      -2.28470278    
   3.53553391       3.53553391      -7.00000000       297.142975      -2.28470278    
   3.53553391       3.53553391      -8.00000000       297.142975      -2.28470278    
   3.01776695       3.93283010      -7.00000000       405.250336      -2.29570770    
   3.01776695       3.93283010      -6.00000000       405.250336      -2.29570770    
   3.53553391       3.53553391      -6.00000000       405.250336      -2.29570770    
   3.53553391       3.53553391      -7.00000000       405.250336      -2.29570770    
   3.01776695       3.93283010      -6.00000000       559.778503      -2.29914546    
   3.01776695       3.93283010      -5.00000000       559.778503      -2.29914546    
   3.53553391       3.53553391      -5.00000000       559.778503      -2.29914546    
   3.53553391       3.53553391      -6.00000000       559.778503      -2.29914546    
   3.01776695       3.93283010      -5.00000000       777.874634      -2.29887819    
   3.01776695       3.93283010      -4.00000000       777.874634      -2.29887819    
   3.53553391       3.53553391      -4.00000000       777.874634      -2.29887819    
   3.53553391       3.53553391      -5.00000000       777.874634      -2.29887819    
   3.01776695       3.93283010      -4.00000000       1084.44617      -2.29602289    
   3.01776695       3.93283010      -3.00000000       1084.44617      -2.29602289    
   3.53553391       3.53553391      -3.00000000       1084.44617      -2.29602289    
   3.53553391       3.53553391      -4.00000000       1084.44617      -2.29602289    
   3.01776695       3.93283010      -3.00000000       1515.32764      -2.29095173    
   3.01776695       3.93283010      -2.00000000       1515.32764      -2.29095173    
   3.53553391       3.53553391      -2.00000000       1515.32764      -2.29095173    
   3.53553391       3.53553391      -3.00000000       1515.32764      -2.29095173    
   3.01776695       3.93283010      -2.00000000       2120.90894      -2.28405356    
   3.01776695       3.93283010      -1.00000000       2120.90894      -2.28405356    
   3.53553391       3.53553391      -1.00000000       2120.90894      -2.28405356    
   3.53553391       3.53553391      -2.00000000       2120.90894      -2.28405356    
   3.01776695       3.93283010      -1.00000000       2981.05811      -2.27106619    
   3.01776695       3.93283010       0.00000000       2981.05811      -2.27106619    
   3.53553391       3.53553391       0.00000000       2981.05811      -2.27106619    
   3.53553391       3.53553391      -1.00000000       2981.05811      -2.27106619    
   1.29409504       4.82962894      -10.0000000       44.1679573      -1.23313344    
   1.29409504       4.82962894      -9.00000000       44.1679573      -1.23313344    
   1.89704800       4.57987785      -9.00000000       44.1679573      -1.23313344    
   1.89704800       4.57987785      -10.0000000       44.1679573      -1.23313344    
   1.29409504       4.82962894      -9.00000000       74.1459503     -0.366141111    
   1.29409504       4.82962894      -8.00000000       74.1459503     -0.366141111    
   1.89704800       4.57987785      -8.00000000       74.1459503     -0.366141111    
   1.89704800       4.57987785      -9.00000000       74.1459503     -0.366141111    
   1.29409504       4.82962894      -8.00000000       119.996254     -0.203524143    
   1.29409504       4.82962894      -7.00000000       119.996254     -0.203524143    
   1.89704800       4.57987785      -7.00000000       119.996254     -0.203524143    
   1.89704800       4.57987785      -8.00000000       119.996254     -0.203524143    
   1.29409504       4.82962894      -7.00000000       177.923340     -0.155100852    
   1.29409504       4.82962894      -6.00000000       177.923340     -0.155100852    
   1.89704800       4.57987785      -6.00000000       177.923340     -0.155100852    
   1.89704800       4.57987785      -7.00000000       177.923340     -0.155100852    
   1.29409504       4.82962894      -6.00000000       254.957214     -0.141230524    
   1.29409504       4.82962894      -5.00000000       254.957214     -0.141230524    
   1.89704800       4.57987785      -5.00000000       254.957214     -0.141230524    
   1.89704800       4.57987785      -6.00000000       254.957214     -0.141230524    
   1.29409504       4.82962894      -5.00000000       360.142792     -0.140546903    
   1.29409504       4.82962894      -4.00000000       360.142792     -0.140546903    
   1.89704800       4.57987785      -4.00000000       360.142792     -0.140546903    
   1.89704800       4.57987785      -5.00000000       360.142792     -0.140546903    
   1.29409504       4.82962894      -4.00000000       505.335358     -0.147556767    
   1.29409504       4.82962894      -3.00000000       505.335358     -0.147556767    
   1.89704800       4.57987785      -3.00000000       505.335358     -0.147556767    