 VARIABLES="X" "Y" "Z" "abs(p) (Pa)" "angle(p) (rad)"
ZONE N=   1080,E =     600, F=FEPOINT, ET=QUADRILATERAL
   4.82962894       1.29409504      -10.0000000       1095.64050       2.46732116    
   4.82962894       1.29409504      -9.00000000       1095.64050       2.46732116    
   4.91481400      0.647047520      -9.00000000       1095.64050       2.46732116    
   4.91481400      0.647047520      -10.0000000       1095.64050       2.46732116    
   4.82962894       1.29409504      -9.00000000       1329.33850       2.28745604    
   4.82962894       1.29409504      -8.00000000       1329.33850       2.28745604    
   4.91481400      0.647047520      -8.00000000       1329.33850       2.28745604    
   4.91481400      0.647047520      -9.00000000       1329.33850       2.28745604    
   4.82962894       1.29409504      -8.00000000       1529.69763       2.21489429    
   4.82962894       1.29409504      -7.00000000       1529.69763       2.21489429    
   4.91481400      0.647047520      -7.00000000       1529.69763       2.21489429    
   4.91481400      0.647047520      -8.00000000       1529.69763       2.21489429    
   4.82962894       1.29409504      -7.00000000       1714.79114       2.17529321    
   4.82962894       1.29409504      -6.00000000       1714.79114       2.17529321    
   4.91481400      0.647047520      -6.00000000       1714.79114       2.17529321    
   4.91481400      0.647047520      -7.00000000       1714.79114       2.17529321    
   4.82962894       1.29409504      -6.00000000       1893.64587       2.15109468    
   4.82962894       1.29409504      -5.00000000       1893.64587       2.15109468    
   4.91481400      0.647047520      -5.00000000       1893.64587       2.15109468    
   4.91481400      0.647047520      -6.00000000       1893.64587       2.15109468    
   4.82962894       1.29409504      -5.00000000       2071.79907       2.13548994    
   4.82962894       1.29409504      -4.00000000       2071.79907       2.13548994    
   4.91481400      0.647047520      -4.00000000       2071.79907       2.13548994    
   4.91481400      0.647047520      -5.00000000       2071.79907       2.13548994    
   4.82962894       1.29409504      -4.00000000       2252.37573       2.12537241    
   4.82962894       1.29409504      -3.00000000       2252.37573       2.12537241    
   4.91481400      0.647047520      -3.00000000       2252.37573       2.12537241    
   4.91481400      0.647047520      -4.00000000       2252.37573       2.12537241    
   4.82962894       1.29409504      -3.00000000       2437.23682       2.11902976    
   4.82962894       1.29409504      -2.00000000       2437.23682       2.11902976    
   4.91481400      0.647047520      -2.00000000       2437.23682       2.11902976    
   4.91481400      0.647047520      -3.00000000       2437.23682       2.11902976    
   4.82962894       1.29409504      -2.00000000       2628.25073       2.11536837    
   4.82962894       1.29409504      -1.00000000       2628.25073       2.11536837    
   4.91481400      0.647047520      -1.00000000       2628.25073       2.11536837    
   4.91481400      0.647047520      -2.00000000       2628.25073       2.11536837    
   4.82962894       1.29409504      -1.00000000       2824.89746       2.11400366    
   4.82962894       1.29409504       0.00000000       2824.89746       2.11400366    
   4.91481400      0.647047520       0.00000000       2824.89746       2.11400366    
   4.91481400      0.647047520      -1.00000000       2824.89746       2.11400366    
   4.91481400      0.647047520      -10.0000000       1113.45532       2.46104240    
   4.91481400      0.647047520      -9.00000000       1113.45532       2.46104240    
   5.00000000       0.00000000      -9.00000000       1113.45532       2.46104240    
   5.00000000       0.00000000      -10.0000000       1113.45532       2.46104240    
   4.91481400      0.647047520      -9.00000000       1354.15161       2.28368831    
   4.91481400      0.647047520      -8.00000000       1354.15161       2.28368831    
   5.00000000       0.00000000      -8.00000000       1354.15161       2.28368831    
   5.00000000       0.00000000      -9.00000000       1354.15161       2.28368831    
   4.91481400      0.647047520      -8.00000000       1559.24634       2.21225381    
   4.91481400      0.647047520      -7.00000000       1559.24634       2.21225381    
   5.00000000       0.00000000      -7.00000000       1559.24634       2.21225381    
   5.00000000       0.00000000      -8.00000000       1559.24634       2.21225381    
   4.91481400      0.647047520      -7.00000000       1748.35986       2.17326188    
   4.91481400      0.647047520      -6.00000000       1748.35986       2.17326188    
   5.00000000       0.00000000      -6.00000000       1748.35986       2.17326188    
   5.00000000       0.00000000      -7.00000000       1748.35986       2.17326188    
   4.91481400      0.647047520      -6.00000000       1930.95654       2.14942193    
   4.91481400      0.647047520      -5.00000000       1930.95654       2.14942193    
   5.00000000       0.00000000      -5.00000000       1930.95654       2.14942193    
   5.00000000       0.00000000      -6.00000000       1930.95654       2.14942193    
   4.91481400      0.647047520      -5.00000000       2112.75684       2.13404226    
   4.91481400      0.647047520      -4.00000000       2112.75684       2.13404226    
   5.00000000       0.00000000      -4.00000000       2112.75684       2.13404226    
   5.00000000       0.00000000      -5.00000000       2112.75684       2.13404226    
   4.91481400      0.647047520      -4.00000000       2296.98901       2.12406611    
   4.91481400      0.647047520      -3.00000000       2296.98901       2.12406611    
   5.00000000       0.00000000      -3.00000000       2296.98901       2.12406611    
   5.00000000       0.00000000      -4.00000000       2296.98901       2.12406611    
   4.91481400      0.647047520      -3.00000000       2485.56860       2.11780787    
   4.91481400      0.647047520      -2.00000000       2485.56860       2.11780787    
   5.00000000       0.00000000      -2.00000000       2485.56860       2.11780787    
   5.00000000       0.00000000      -3.00000000       2485.56860       2.11780787    
   4.91481400      0.647047520      -2.00000000       2680.40552       2.11419368    
   4.91481400      0.647047520      -1.00000000       2680.40552       2.11419368    
   5.00000000       0.00000000      -1.00000000       2680.40552       2.11419368    
   5.00000000       0.00000000      -2.00000000       2680.40552       2.11419368    
   4.91481400      0.647047520      -1.00000000       2881.00806       2.11283898    
   4.91481400      0.647047520       0.00000000       2881.00806       2.11283898    
   5.00000000       0.00000000       0.00000000       2881.00806       2.11283898    
   5.00000000       0.00000000      -1.00000000       2881.00806       2.11283898    
   4.33012676       2.50000000      -10.0000000       1001.96918       2.50729680    
   4.33012676       2.50000000      -9.00000000       1001.96918       2.50729680    
   4.57987785       1.89704800      -9.00000000       1001.96918       2.50729680    
   4.57987785       1.89704800      -10.0000000       1001.96918       2.50729680    
   4.33012676       2.50000000      -9.00000000       1198.12842       2.31295681    
   4.33012676       2.50000000      -8.00000000       1198.12842       2.31295681    
   4.57987785       1.89704800      -8.00000000       1198.12842       2.31295681    
   4.57987785       1.89704800      -9.00000000       1198.12842       2.31295681    
   4.33012676       2.50000000      -8.00000000       1373.49658       2.23359346    
   4.33012676       2.50000000      -7.00000000       1373.49658       2.23359346    
   4.57987785       1.89704800      -7.00000000       1373.49658       2.23359346    
   4.57987785       1.89704800      -8.00000000       1373.49658       2.23359346    
   4.33012676       2.50000000      -7.00000000       1537.40894       2.19027424    
   4.33012676       2.50000000      -6.00000000       1537.40894       2.19027424    
   4.57987785       1.89704800      -6.00000000       1537.40894       2.19027424    
   4.57987785       1.89704800      -7.00000000       1537.40894       2.19027424    
   4.33012676       2.50000000      -6.00000000       1696.57153       2.16386080    
   4.33012676       2.50000000      -5.00000000       1696.57153       2.16386080    
   4.57987785       1.89704800      -5.00000000       1696.57153       2.16386080    
   4.57987785       1.89704800      -6.00000000       1696.57153       2.16386080    
   4.33012676       2.50000000      -5.00000000       1855.49780       2.14686704    
   4.33012676       2.50000000      -4.00000000       1855.49780       2.14686704    
   4.57987785       1.89704800      -4.00000000       1855.49780       2.14686704    
   4.57987785       1.89704800      -5.00000000       1855.49780       2.14686704    
   4.33012676       2.50000000      -4.00000000       2016.81262       2.13587379    
   4.33012676       2.50000000      -3.00000000       2016.81262       2.13587379    
   4.57987785       1.89704800      -3.00000000       2016.81262       2.13587379    
   4.57987785       1.89704800      -4.00000000       2016.81262       2.13587379    
   4.33012676       2.50000000      -3.00000000       2182.07617       2.12899876    
   4.33012676       2.50000000      -2.00000000       2182.07617       2.12899876    
   4.57987785       1.89704800      -2.00000000       2182.07617       2.12899876    
   4.57987785       1.89704800      -3.00000000       2182.07617       2.12899876    
   4.33012676       2.50000000      -2.00000000       2352.92847       2.12504101    
   4.33012676       2.50000000      -1.00000000       2352.92847       2.12504101    
   4.57987785       1.89704800      -1.00000000       2352.92847       2.12504101    
   4.57987785       1.89704800      -2.00000000       2352.92847       2.12504101    
   4.33012676       2.50000000      -1.00000000       2528.84351       2.12360477    
   4.33012676       2.50000000       0.00000000       2528.84351       2.12360477    
   4.57987785       1.89704800       0.00000000       2528.84351       2.12360477    
   4.57987785       1.89704800      -1.00000000       2528.84351       2.12360477    
   4.57987785       1.89704800      -10.0000000       1052.84875       2.48484039    
   4.57987785       1.89704800      -9.00000000       1052.84875       2.48484039    
   4.82962894       1.29409504      -9.00000000       1052.84875       2.48484039    
   4.82962894       1.29409504      -10.0000000       1052.84875       2.48484039    
   4.57987785       1.89704800      -9.00000000       1269.92102       2.29843545    
   4.57987785       1.89704800      -8.00000000       1269.92102       2.29843545    
   4.82962894       1.29409504      -8.00000000       1269.92102       2.29843545    
   4.82962894       1.29409504      -9.00000000       1269.92102       2.29843545    
   4.57987785       1.89704800      -8.00000000       1459.32312       2.22285962    
   4.57987785       1.89704800      -7.00000000       1459.32312       2.22285962    
   4.82962894       1.29409504      -7.00000000       1459.32312       2.22285962    
   4.82962894       1.29409504      -8.00000000       1459.32312       2.22285962    
   4.57987785       1.89704800      -7.00000000       1635.08398       2.18163133    
   4.57987785       1.89704800      -6.00000000       1635.08398       2.18163133    
   4.82962894       1.29409504      -6.00000000       1635.08398       2.18163133    
   4.82962894       1.29409504      -7.00000000       1635.08398       2.18163133    
   4.57987785       1.89704800      -6.00000000       1805.23938       2.15646434    
   4.57987785       1.89704800      -5.00000000       1805.23938       2.15646434    
   4.82962894       1.29409504      -5.00000000       1805.23938       2.15646434    
   4.82962894       1.29409504      -6.00000000       1805.23938       2.15646434    
   4.57987785       1.89704800      -5.00000000       1974.86072       2.14025688    
   4.57987785       1.89704800      -4.00000000       1974.86072       2.14025688    
   4.82962894       1.29409504      -4.00000000       1974.86072       2.14025688    
   4.82962894       1.29409504      -5.00000000       1974.86072       2.14025688    
   4.57987785       1.89704800      -4.00000000       2146.87061       2.12975907    
   4.57987785       1.89704800      -3.00000000       2146.87061       2.12975907    
   4.82962894       1.29409504      -3.00000000       2146.87061       2.12975907    
   4.82962894       1.29409504      -4.00000000       2146.87061       2.12975907    
   4.57987785       1.89704800      -3.00000000       2323.00537       2.12318349    
   4.57987785       1.89704800      -2.00000000       2323.00537       2.12318349    
   4.82962894       1.29409504      -2.00000000       2323.00537       2.12318349    
   4.82962894       1.29409504      -3.00000000       2323.00537       2.12318349    
   4.57987785       1.89704800      -2.00000000       2505.01880       2.11939359    
   4.57987785       1.89704800      -1.00000000       2505.01880       2.11939359    
   4.82962894       1.29409504      -1.00000000       2505.01880       2.11939359    
   4.82962894       1.29409504      -2.00000000       2505.01880       2.11939359    
   4.57987785       1.89704800      -1.00000000       2692.47778       2.11799288    
   4.57987785       1.89704800       0.00000000       2692.47778       2.11799288    
   4.82962894       1.29409504       0.00000000       2692.47778       2.11799288    
   4.82962894       1.29409504      -1.00000000       2692.47778       2.11799288    
   3.53553391       3.53553391      -10.0000000       847.926453       2.60447001    
   3.53553391       3.53553391      -9.00000000       847.926453       2.60447001    
   3.93283010       3.01776695      -9.00000000       847.926453       2.60447001    
   3.93283010       3.01776695      -10.0000000       847.926453       2.60447001    
   3.53553391       3.53553391      -9.00000000       976.115295       2.38259959    
   3.53553391       3.53553391      -8.00000000       976.115295       2.38259959    
   3.93283010       3.01776695      -8.00000000       976.115295       2.38259959    
   3.93283010       3.01776695      -9.00000000       976.115295       2.38259959    
   3.53553391       3.53553391      -8.00000000       1106.87061       2.28825259    
   3.53553391       3.53553391      -7.00000000       1106.87061       2.28825259    
   3.93283010       3.01776695      -7.00000000       1106.87061       2.28825259    
   3.93283010       3.01776695      -8.00000000       1106.87061       2.28825259    
   3.53553391       3.53553391      -7.00000000       1233.41199       2.23635340    
   3.53553391       3.53553391      -6.00000000       1233.41199       2.23635340    
   3.93283010       3.01776695      -6.00000000       1233.41199       2.23635340    
   3.93283010       3.01776695      -7.00000000       1233.41199       2.23635340    
   3.53553391       3.53553391      -6.00000000       1358.10071       2.20470691    
   3.53553391       3.53553391      -5.00000000       1358.10071       2.20470691    
   3.93283010       3.01776695      -5.00000000       1358.10071       2.20470691    
   3.93283010       3.01776695      -6.00000000       1358.10071       2.20470691    
   3.53553391       3.53553391      -5.00000000       1483.53516       2.18438315    
   3.53553391       3.53553391      -4.00000000       1483.53516       2.18438315    
   3.93283010       3.01776695      -4.00000000       1483.53516       2.18438315    
   3.93283010       3.01776695      -5.00000000       1483.53516       2.18438315    
   3.53553391       3.53553391      -4.00000000       1611.40100       2.17127013    
   3.53553391       3.53553391      -3.00000000       1611.40100       2.17127013    
   3.93283010       3.01776695      -3.00000000       1611.40100       2.17127013    
   3.93283010       3.01776695      -4.00000000       1611.40100       2.17127013    
   3.53553391       3.53553391      -3.00000000       1742.73523       2.16309714    
   3.53553391       3.53553391      -2.00000000       1742.73523       2.16309714    
   3.93283010       3.01776695      -2.00000000       1742.73523       2.16309714    
   3.93283010       3.01776695      -3.00000000       1742.73523       2.16309714    
   3.53553391       3.53553391      -2.00000000       1878.73999       2.15841484    
   3.53553391       3.53553391      -1.00000000       1878.73999       2.15841484    
   3.93283010       3.01776695      -1.00000000       1878.73999       2.15841484    
   3.93283010       3.01776695      -2.00000000       1878.73999       2.15841484    
   3.53553391       3.53553391      -1.00000000       2018.93579       2.15679502    
   3.53553391       3.53553391       0.00000000       2018.93579       2.15679502    
   3.93283010       3.01776695       0.00000000       2018.93579       2.15679502    
   3.93283010       3.01776695      -1.00000000       2018.93579       2.15679502    
   3.93283010       3.01776695      -10.0000000       923.120850       2.55221272    
   3.93283010       3.01776695      -9.00000000       923.120850       2.55221272    
   4.33012676       2.50000000      -9.00000000       923.120850       2.55221272    
   4.33012676       2.50000000      -10.0000000       923.120850       2.55221272    
   3.93283010       3.01776695      -9.00000000       1086.05786       2.34395432    
   3.93283010       3.01776695      -8.00000000       1086.05786       2.34395432    
   4.33012676       2.50000000      -8.00000000       1086.05786       2.34395432    
   4.33012676       2.50000000      -9.00000000       1086.05786       2.34395432    
   3.93283010       3.01776695      -8.00000000       1239.80420       2.25744367    
   3.93283010       3.01776695      -7.00000000       1239.80420       2.25744367    
   4.33012676       2.50000000      -7.00000000       1239.80420       2.25744367    
   4.33012676       2.50000000      -8.00000000       1239.80420       2.25744367    
   3.93283010       3.01776695      -7.00000000       1385.49231       2.21013045    
   3.93283010       3.01776695      -6.00000000       1385.49231       2.21013045    
   4.33012676       2.50000000      -6.00000000       1385.49231       2.21013045    
   4.33012676       2.50000000      -7.00000000       1385.49231       2.21013045    
   3.93283010       3.01776695      -6.00000000       1527.77417       2.18130302    
   3.93283010       3.01776695      -5.00000000       1527.77417       2.18130302    
   4.33012676       2.50000000      -5.00000000       1527.77417       2.18130302    
   4.33012676       2.50000000      -6.00000000       1527.77417       2.18130302    
   3.93283010       3.01776695      -5.00000000       1670.22510       2.16278458    
   3.93283010       3.01776695      -4.00000000       1670.22510       2.16278458    
   4.33012676       2.50000000      -4.00000000       1670.22510       2.16278458    
   4.33012676       2.50000000      -5.00000000       1670.22510       2.16278458    
   3.93283010       3.01776695      -4.00000000       1815.03052       2.15082574    
   3.93283010       3.01776695      -3.00000000       1815.03052       2.15082574    
   4.33012676       2.50000000      -3.00000000       1815.03052       2.15082574    
   4.33012676       2.50000000      -4.00000000       1815.03052       2.15082574    
   3.93283010       3.01776695      -3.00000000       1963.51697       2.14335752    
   3.93283010       3.01776695      -2.00000000       1963.51697       2.14335752    
   4.33012676       2.50000000      -2.00000000       1963.51697       2.14335752    
   4.33012676       2.50000000      -3.00000000       1963.51697       2.14335752    
   3.93283010       3.01776695      -2.00000000       2117.09521       2.13907027    
   3.93283010       3.01776695      -1.00000000       2117.09521       2.13907027    
   4.33012676       2.50000000      -1.00000000       2117.09521       2.13907027    
   4.33012676       2.50000000      -2.00000000       2117.09521       2.13907027    
   3.93283010       3.01776695      -1.00000000       2275.41040       2.13753605    
   3.93283010       3.01776695       0.00000000       2275.41040       2.13753605    
   4.33012676       2.50000000       0.00000000       2275.41040       2.13753605    
   4.33012676       2.50000000      -1.00000000       2275.41040       2.13753605    
   2.50000000       4.33012676      -10.0000000       669.921204       2.81867099    
   2.50000000       4.33012676      -9.00000000       669.921204       2.81867099    
   3.01776695       3.93283010      -9.00000000       669.921204       2.81867099    
   3.01776695       3.93283010      -10.0000000       669.921204       2.81867099    
   2.50000000       4.33012676      -9.00000000       700.295532       2.56904602    
   2.50000000       4.33012676      -8.00000000       700.295532       2.56904602    
   3.01776695       3.93283010      -8.00000000       700.295532       2.56904602    
   3.01776695       3.93283010      -9.00000000       700.295532       2.56904602    
   2.50000000       4.33012676      -8.00000000       766.914307       2.44836450    
   2.50000000       4.33012676      -7.00000000       766.914307       2.44836450    
   3.01776695       3.93283010      -7.00000000       766.914307       2.44836450    
   3.01776695       3.93283010      -8.00000000       766.914307       2.44836450    
   2.50000000       4.33012676      -7.00000000       840.949463       2.37894654    
   2.50000000       4.33012676      -6.00000000       840.949463       2.37894654    
   3.01776695       3.93283010      -6.00000000       840.949463       2.37894654    
   3.01776695       3.93283010      -7.00000000       840.949463       2.37894654    
   2.50000000       4.33012676      -6.00000000       918.117981       2.33584070    
   2.50000000       4.33012676      -5.00000000       918.117981       2.33584070    
   3.01776695       3.93283010      -5.00000000       918.117981       2.33584070    
   3.01776695       3.93283010      -6.00000000       918.117981       2.33584070    
   2.50000000       4.33012676      -5.00000000       998.017944       2.30793309    
   2.50000000       4.33012676      -4.00000000       998.017944       2.30793309    
   3.01776695       3.93283010      -4.00000000       998.017944       2.30793309    
   3.01776695       3.93283010      -5.00000000       998.017944       2.30793309    
   2.50000000       4.33012676      -4.00000000       1080.88525       2.28987312    
   2.50000000       4.33012676      -3.00000000       1080.88525       2.28987312    
   3.01776695       3.93283010      -3.00000000       1080.88525       2.28987312    
   3.01776695       3.93283010      -4.00000000       1080.88525       2.28987312    
   2.50000000       4.33012676      -3.00000000       1166.94092       2.27863193    
   2.50000000       4.33012676      -2.00000000       1166.94092       2.27863193    
   3.01776695       3.93283010      -2.00000000       1166.94092       2.27863193    
   3.01776695       3.93283010      -3.00000000       1166.94092       2.27863193    
   2.50000000       4.33012676      -2.00000000       1256.75049       2.27222109    
   2.50000000       4.33012676      -1.00000000       1256.75049       2.27222109    
   3.01776695       3.93283010      -1.00000000       1256.75049       2.27222109    
   3.01776695       3.93283010      -2.00000000       1256.75049       2.27222109    
   2.50000000       4.33012676      -1.00000000       1349.93958       2.27016258    
   2.50000000       4.33012676       0.00000000       1349.93958       2.27016258    
   3.01776695       3.93283010       0.00000000       1349.93958       2.27016258    
   3.01776695       3.93283010      -1.00000000       1349.93958       2.27016258    
   3.01776695       3.93283010      -10.0000000       749.640442       2.70382929    
   3.01776695       3.93283010      -9.00000000       749.640442       2.70382929    
   3.53553391       3.53553391      -9.00000000       749.640442       2.70382929    
   3.53553391       3.53553391      -10.0000000       749.640442       2.70382929    
   3.01776695       3.93283010      -9.00000000       827.880737       2.46317554    
   3.01776695       3.93283010      -8.00000000       827.880737       2.46317554    
   3.53553391       3.53553391      -8.00000000       827.880737       2.46317554    
   3.53553391       3.53553391      -9.00000000       827.880737       2.46317554    
   3.01776695       3.93283010      -8.00000000       926.464600       2.35520339    
   3.01776695       3.93283010      -7.00000000       926.464600       2.35520339    
   3.53553391       3.53553391      -7.00000000       926.464600       2.35520339    
   3.53553391       3.53553391      -8.00000000       926.464600       2.35520339    
   3.01776695       3.93283010      -7.00000000       1026.48584       2.29490471    
   3.01776695       3.93283010      -6.00000000       1026.48584       2.29490471    
   3.53553391       3.53553391      -6.00000000       1026.48584       2.29490471    
   3.53553391       3.53553391      -7.00000000       1026.48584       2.29490471    
   3.01776695       3.93283010      -6.00000000       1127.00049       2.25794220    
   3.01776695       3.93283010      -5.00000000       1127.00049       2.25794220    
   3.53553391       3.53553391      -5.00000000       1127.00049       2.25794220    
   3.53553391       3.53553391      -6.00000000       1127.00049       2.25794220    
   3.01776695       3.93283010      -5.00000000       1229.10107       2.23417044    
   3.01776695       3.93283010      -4.00000000       1229.10107       2.23417044    
   3.53553391       3.53553391      -4.00000000       1229.10107       2.23417044    
   3.53553391       3.53553391      -5.00000000       1229.10107       2.23417044    
   3.01776695       3.93283010      -4.00000000       1333.77820       2.21883607    
   3.01776695       3.93283010      -3.00000000       1333.77820       2.21883607    
   3.53553391       3.53553391      -3.00000000       1333.77820       2.21883607    
   3.53553391       3.53553391      -4.00000000       1333.77820       2.21883607    
   3.01776695       3.93283010      -3.00000000       1441.69165       2.20928741    
   3.01776695       3.93283010      -2.00000000       1441.69165       2.20928741    
   3.53553391       3.53553391      -2.00000000       1441.69165       2.20928741    
   3.53553391       3.53553391      -3.00000000       1441.69165       2.20928741    
   3.01776695       3.93283010      -2.00000000       1553.70142       2.20383453    
   3.01776695       3.93283010      -1.00000000       1553.70142       2.20383453    
   3.53553391       3.53553391      -1.00000000       1553.70142       2.20383453    
   3.53553391       3.53553391      -2.00000000       1553.70142       2.20383453    
   3.01776695       3.93283010      -1.00000000       1669.56921       2.20197558    
   3.01776695       3.93283010       0.00000000       1669.56921       2.20197558    
   3.53553391       3.53553391       0.00000000       1669.56921       2.20197558    
   3.53553391       3.53553391      -1.00000000       1669.56921       2.20197558    
   1.29409504       4.82962894      -10.0000000       547.454224      -3.03827477    
   1.29409504       4.82962894      -9.00000000       547.454224      -3.03827477    
   1.89704800       4.57987785      -9.00000000       547.454224      -3.03827477    
   1.89704800       4.57987785      -10.0000000       547.454224      -3.03827477    
   1.29409504       4.82962894      -9.00000000       474.511475       3.09133077    
   1.29409504       4.82962894      -8.00000000       474.511475       3.09133077    
   1.89704800       4.57987785      -8.00000000       474.511475       3.09133077    
   1.89704800       4.57987785      -9.00000000       474.511475       3.09133077    
   1.29409504       4.82962894      -8.00000000       463.930511       2.98584437    
   1.29409504       4.82962894      -7.00000000       463.930511       2.98584437    
   1.89704800       4.57987785      -7.00000000       463.930511       2.98584437    
   1.89704800       4.57987785      -8.00000000       463.930511       2.98584437    
   1.29409504       4.82962894      -7.00000000       474.119873       2.91179633    
   1.29409504       4.82962894      -6.00000000       474.119873       2.91179633    
   1.89704800       4.57987785      -6.00000000       474.119873       2.91179633    
   1.89704800       4.57987785      -7.00000000       474.119873       2.91179633    
   1.29409504       4.82962894      -6.00000000       494.918060       2.85997844    
   1.29409504       4.82962894      -5.00000000       494.918060       2.85997844    
   1.89704800       4.57987785      -5.00000000       494.918060       2.85997844    
   1.89704800       4.57987785      -6.00000000       494.918060       2.85997844    
   1.29409504       4.82962894      -5.00000000       522.507385       2.82381201    
   1.29409504       4.82962894      -4.00000000       522.507385       2.82381201    
   1.89704800       4.57987785      -4.00000000       522.507385       2.82381201    
   1.89704800       4.57987785      -5.00000000       522.507385       2.82381201    
   1.29409504       4.82962894      -4.00000000       555.325806       2.79928470    
   1.29409504       4.82962894      -3.00000000       555.325806       2.79928470    
   1.89704800       4.57987785      -3.00000000       555.325806       2.79928470    