 VARIABLES="X" "Y" "Z" "abs(p) (Pa)" "angle(p) (rad)"
ZONE N=   1080,E =     600, F=FEPOINT, ET=QUADRILATERAL
   4.82962894       1.29409504      -10.0000000       779.688049       1.95258427    
   4.82962894       1.29409504      -9.00000000       779.688049       1.95258427    
   4.91481400      0.647047520      -9.00000000       779.688049       1.95258427    
   4.91481400      0.647047520      -10.0000000       779.688049       1.95258427    
   4.82962894       1.29409504      -9.00000000       951.223999       1.93937910    
   4.82962894       1.29409504      -8.00000000       951.223999       1.93937910    
   4.91481400      0.647047520      -8.00000000       951.223999       1.93937910    
   4.91481400      0.647047520      -9.00000000       951.223999       1.93937910    
   4.82962894       1.29409504      -8.00000000       1315.45593       1.86877692    
   4.82962894       1.29409504      -7.00000000       1315.45593       1.86877692    
   4.91481400      0.647047520      -7.00000000       1315.45593       1.86877692    
   4.91481400      0.647047520      -8.00000000       1315.45593       1.86877692    
   4.82962894       1.29409504      -7.00000000       1770.94922       1.81486440    
   4.82962894       1.29409504      -6.00000000       1770.94922       1.81486440    
   4.91481400      0.647047520      -6.00000000       1770.94922       1.81486440    
   4.91481400      0.647047520      -7.00000000       1770.94922       1.81486440    
   4.82962894       1.29409504      -6.00000000       2280.24097       1.77839148    
   4.82962894       1.29409504      -5.00000000       2280.24097       1.77839148    
   4.91481400      0.647047520      -5.00000000       2280.24097       1.77839148    
   4.91481400      0.647047520      -6.00000000       2280.24097       1.77839148    
   4.82962894       1.29409504      -5.00000000       2820.69824       1.75382376    
   4.82962894       1.29409504      -4.00000000       2820.69824       1.75382376    
   4.91481400      0.647047520      -4.00000000       2820.69824       1.75382376    
   4.91481400      0.647047520      -5.00000000       2820.69824       1.75382376    
   4.82962894       1.29409504      -4.00000000       3374.54590       1.73716438    
   4.82962894       1.29409504      -3.00000000       3374.54590       1.73716438    
   4.91481400      0.647047520      -3.00000000       3374.54590       1.73716438    
   4.91481400      0.647047520      -4.00000000       3374.54590       1.73716438    
   4.82962894       1.29409504      -3.00000000       3926.61304       1.72594047    
   4.82962894       1.29409504      -2.00000000       3926.61304       1.72594047    
   4.91481400      0.647047520      -2.00000000       3926.61304       1.72594047    
   4.91481400      0.647047520      -3.00000000       3926.61304       1.72594047    
   4.82962894       1.29409504      -2.00000000       4460.84619       1.71873283    
   4.82962894       1.29409504      -1.00000000       4460.84619       1.71873283    
   4.91481400      0.647047520      -1.00000000       4460.84619       1.71873283    
   4.91481400      0.647047520      -2.00000000       4460.84619       1.71873283    
   4.82962894       1.29409504      -1.00000000       4949.40283       1.71503699    
   4.82962894       1.29409504       0.00000000       4949.40283       1.71503699    
   4.91481400      0.647047520       0.00000000       4949.40283       1.71503699    
   4.91481400      0.647047520      -1.00000000       4949.40283       1.71503699    
   4.91481400      0.647047520      -10.0000000       247.189728       1.99980533    
   4.91481400      0.647047520      -9.00000000       247.189728       1.99980533    
   5.00000000       0.00000000      -9.00000000       247.189728       1.99980533    
   5.00000000       0.00000000      -10.0000000       247.189728       1.99980533    
   4.91481400      0.647047520      -9.00000000       321.559143       1.95888710    
   4.91481400      0.647047520      -8.00000000       321.559143       1.95888710    
   5.00000000       0.00000000      -8.00000000       321.559143       1.95888710    
   5.00000000       0.00000000      -9.00000000       321.559143       1.95888710    
   4.91481400      0.647047520      -8.00000000       467.843628       1.86835718    
   4.91481400      0.647047520      -7.00000000       467.843628       1.86835718    
   5.00000000       0.00000000      -7.00000000       467.843628       1.86835718    
   5.00000000       0.00000000      -8.00000000       467.843628       1.86835718    
   4.91481400      0.647047520      -7.00000000       647.392029       1.80780303    
   4.91481400      0.647047520      -6.00000000       647.392029       1.80780303    
   5.00000000       0.00000000      -6.00000000       647.392029       1.80780303    
   5.00000000       0.00000000      -7.00000000       647.392029       1.80780303    
   4.91481400      0.647047520      -6.00000000       846.538879       1.76930773    
   4.91481400      0.647047520      -5.00000000       846.538879       1.76930773    
   5.00000000       0.00000000      -5.00000000       846.538879       1.76930773    
   5.00000000       0.00000000      -6.00000000       846.538879       1.76930773    
   4.91481400      0.647047520      -5.00000000       1056.80078       1.74423671    
   4.91481400      0.647047520      -4.00000000       1056.80078       1.74423671    
   5.00000000       0.00000000      -4.00000000       1056.80078       1.74423671    
   5.00000000       0.00000000      -5.00000000       1056.80078       1.74423671    
   4.91481400      0.647047520      -4.00000000       1272.23291       1.72747242    
   4.91481400      0.647047520      -3.00000000       1272.23291       1.72747242    
   5.00000000       0.00000000      -3.00000000       1272.23291       1.72747242    
   5.00000000       0.00000000      -4.00000000       1272.23291       1.72747242    
   4.91481400      0.647047520      -3.00000000       1486.72937       1.71628737    
   4.91481400      0.647047520      -2.00000000       1486.72937       1.71628737    
   5.00000000       0.00000000      -2.00000000       1486.72937       1.71628737    
   5.00000000       0.00000000      -3.00000000       1486.72937       1.71628737    
   4.91481400      0.647047520      -2.00000000       1694.88867       1.70905137    
   4.91481400      0.647047520      -1.00000000       1694.88867       1.70905137    
   5.00000000       0.00000000      -1.00000000       1694.88867       1.70905137    
   5.00000000       0.00000000      -2.00000000       1694.88867       1.70905137    
   4.91481400      0.647047520      -1.00000000       1885.03662       1.70521295    
   4.91481400      0.647047520       0.00000000       1885.03662       1.70521295    
   5.00000000       0.00000000       0.00000000       1885.03662       1.70521295    
   5.00000000       0.00000000      -1.00000000       1885.03662       1.70521295    
   4.33012676       2.50000000      -10.0000000       1753.19470       1.95924079    
   4.33012676       2.50000000      -9.00000000       1753.19470       1.95924079    
   4.57987785       1.89704800      -9.00000000       1753.19470       1.95924079    
   4.57987785       1.89704800      -10.0000000       1753.19470       1.95924079    
   4.33012676       2.50000000      -9.00000000       2159.13403       1.94228852    
   4.33012676       2.50000000      -8.00000000       2159.13403       1.94228852    
   4.57987785       1.89704800      -8.00000000       2159.13403       1.94228852    
   4.57987785       1.89704800      -9.00000000       2159.13403       1.94228852    
   4.33012676       2.50000000      -8.00000000       3009.10889       1.86871338    
   4.33012676       2.50000000      -7.00000000       3009.10889       1.86871338    
   4.57987785       1.89704800      -7.00000000       3009.10889       1.86871338    
   4.57987785       1.89704800      -8.00000000       3009.10889       1.86871338    
   4.33012676       2.50000000      -7.00000000       4068.58765       1.81373990    
   4.33012676       2.50000000      -6.00000000       4068.58765       1.81373990    
   4.57987785       1.89704800      -6.00000000       4068.58765       1.81373990    
   4.57987785       1.89704800      -7.00000000       4068.58765       1.81373990    
   4.33012676       2.50000000      -6.00000000       5251.60596       1.77692842    
   4.33012676       2.50000000      -5.00000000       5251.60596       1.77692842    
   4.57987785       1.89704800      -5.00000000       5251.60596       1.77692842    
   4.57987785       1.89704800      -6.00000000       5251.60596       1.77692842    
   4.33012676       2.50000000      -5.00000000       6505.94385       1.75226235    
   4.33012676       2.50000000      -4.00000000       6505.94385       1.75226235    
   4.57987785       1.89704800      -4.00000000       6505.94385       1.75226235    
   4.57987785       1.89704800      -5.00000000       6505.94385       1.75226235    
   4.33012676       2.50000000      -4.00000000       7791.31152       1.73558331    
   4.33012676       2.50000000      -3.00000000       7791.31152       1.73558331    
   4.57987785       1.89704800      -3.00000000       7791.31152       1.73558331    
   4.57987785       1.89704800      -4.00000000       7791.31152       1.73558331    
   4.33012676       2.50000000      -3.00000000       9072.29492       1.72435939    
   4.33012676       2.50000000      -2.00000000       9072.29492       1.72435939    
   4.57987785       1.89704800      -2.00000000       9072.29492       1.72435939    
   4.57987785       1.89704800      -3.00000000       9072.29492       1.72435939    
   4.33012676       2.50000000      -2.00000000       10312.5312       1.71714401    
   4.33012676       2.50000000      -1.00000000       10312.5312       1.71714401    
   4.57987785       1.89704800      -1.00000000       10312.5312       1.71714401    
   4.57987785       1.89704800      -2.00000000       10312.5312       1.71714401    
   4.33012676       2.50000000      -1.00000000       11446.4805       1.71341991    
   4.33012676       2.50000000       0.00000000       11446.4805       1.71341991    
   4.57987785       1.89704800       0.00000000       11446.4805       1.71341991    
   4.57987785       1.89704800      -1.00000000       11446.4805       1.71341991    
   4.57987785       1.89704800      -10.0000000       1256.89514       1.97052646    
   4.57987785       1.89704800      -9.00000000       1256.89514       1.97052646    
   4.82962894       1.29409504      -9.00000000       1256.89514       1.97052646    
   4.82962894       1.29409504      -10.0000000       1256.89514       1.97052646    
   4.57987785       1.89704800      -9.00000000       1572.36182       1.94709253    
   4.57987785       1.89704800      -8.00000000       1572.36182       1.94709253    
   4.82962894       1.29409504      -8.00000000       1572.36182       1.94709253    
   4.82962894       1.29409504      -9.00000000       1572.36182       1.94709253    
   4.57987785       1.89704800      -8.00000000       2219.25244       1.86860371    
   4.57987785       1.89704800      -7.00000000       2219.25244       1.86860371    
   4.82962894       1.29409504      -7.00000000       2219.25244       1.86860371    
   4.82962894       1.29409504      -8.00000000       2219.25244       1.86860371    
   4.57987785       1.89704800      -7.00000000       3021.59595       1.81194210    
   4.57987785       1.89704800      -6.00000000       3021.59595       1.81194210    
   4.82962894       1.29409504      -6.00000000       3021.59595       1.81194210    
   4.82962894       1.29409504      -7.00000000       3021.59595       1.81194210    
   4.57987785       1.89704800      -6.00000000       3915.59424       1.77459705    
   4.57987785       1.89704800      -5.00000000       3915.59424       1.77459705    
   4.82962894       1.29409504      -5.00000000       3915.59424       1.77459705    
   4.82962894       1.29409504      -6.00000000       3915.59424       1.77459705    
   4.57987785       1.89704800      -5.00000000       4862.22998       1.74979293    
   4.57987785       1.89704800      -4.00000000       4862.22998       1.74979293    
   4.82962894       1.29409504      -4.00000000       4862.22998       1.74979293    
   4.82962894       1.29409504      -5.00000000       4862.22998       1.74979293    
   4.57987785       1.89704800      -4.00000000       5832.24316       1.73308039    
   4.57987785       1.89704800      -3.00000000       5832.24316       1.73308039    
   4.82962894       1.29409504      -3.00000000       5832.24316       1.73308039    
   4.82962894       1.29409504      -4.00000000       5832.24316       1.73308039    
   4.57987785       1.89704800      -3.00000000       6798.66797       1.72186220    
   4.57987785       1.89704800      -2.00000000       6798.66797       1.72186220    
   4.82962894       1.29409504      -2.00000000       6798.66797       1.72186220    
   4.82962894       1.29409504      -3.00000000       6798.66797       1.72186220    
   4.57987785       1.89704800      -2.00000000       7735.03320       1.71463645    
   4.57987785       1.89704800      -1.00000000       7735.03320       1.71463645    
   4.82962894       1.29409504      -1.00000000       7735.03320       1.71463645    
   4.82962894       1.29409504      -2.00000000       7735.03320       1.71463645    
   4.57987785       1.89704800      -1.00000000       8590.92480       1.71087468    
   4.57987785       1.89704800       0.00000000       8590.92480       1.71087468    
   4.82962894       1.29409504       0.00000000       8590.92480       1.71087468    
   4.82962894       1.29409504      -1.00000000       8590.92480       1.71087468    
   3.53553391       3.53553391      -10.0000000       2607.24609       1.96123111    
   3.53553391       3.53553391      -9.00000000       2607.24609       1.96123111    
   3.93283010       3.01776695      -9.00000000       2607.24609       1.96123111    
   3.93283010       3.01776695      -10.0000000       2607.24609       1.96123111    
   3.53553391       3.53553391      -9.00000000       3219.90894       1.94314778    
   3.53553391       3.53553391      -8.00000000       3219.90894       1.94314778    
   3.93283010       3.01776695      -8.00000000       3219.90894       1.94314778    
   3.93283010       3.01776695      -9.00000000       3219.90894       1.94314778    
   3.53553391       3.53553391      -8.00000000       4497.68945       1.86869228    
   3.53553391       3.53553391      -7.00000000       4497.68945       1.86869228    
   3.93283010       3.01776695      -7.00000000       4497.68945       1.86869228    
   3.93283010       3.01776695      -8.00000000       4497.68945       1.86869228    
   3.53553391       3.53553391      -7.00000000       6088.96191       1.81341314    
   3.53553391       3.53553391      -6.00000000       6088.96191       1.81341314    
   3.93283010       3.01776695      -6.00000000       6088.96191       1.81341314    
   3.93283010       3.01776695      -7.00000000       6088.96191       1.81341314    
   3.53553391       3.53553391      -6.00000000       7865.07471       1.77650416    
   3.53553391       3.53553391      -5.00000000       7865.07471       1.77650416    
   3.93283010       3.01776695      -5.00000000       7865.07471       1.77650416    
   3.93283010       3.01776695      -6.00000000       7865.07471       1.77650416    
   3.53553391       3.53553391      -5.00000000       9747.82227       1.75181270    
   3.53553391       3.53553391      -4.00000000       9747.82227       1.75181270    
   3.93283010       3.01776695      -4.00000000       9747.82227       1.75181270    
   3.93283010       3.01776695      -5.00000000       9747.82227       1.75181270    
   3.53553391       3.53553391      -4.00000000       11677.1104       1.73512506    
   3.53553391       3.53553391      -3.00000000       11677.1104       1.73512506    
   3.93283010       3.01776695      -3.00000000       11677.1104       1.73512506    
   3.93283010       3.01776695      -4.00000000       11677.1104       1.73512506    
   3.53553391       3.53553391      -3.00000000       13599.7285       1.72390211    
   3.53553391       3.53553391      -2.00000000       13599.7285       1.72390211    
   3.93283010       3.01776695      -2.00000000       13599.7285       1.72390211    
   3.93283010       3.01776695      -3.00000000       13599.7285       1.72390211    
   3.53553391       3.53553391      -2.00000000       15461.4326       1.71668470    
   3.53553391       3.53553391      -1.00000000       15461.4326       1.71668470    
   3.93283010       3.01776695      -1.00000000       15461.4326       1.71668470    
   3.93283010       3.01776695      -2.00000000       15461.4326       1.71668470    
   3.53553391       3.53553391      -1.00000000       17163.5000       1.71295357    
   3.53553391       3.53553391       0.00000000       17163.5000       1.71295357    
   3.93283010       3.01776695       0.00000000       17163.5000       1.71295357    
   3.93283010       3.01776695      -1.00000000       17163.5000       1.71295357    
   3.93283010       3.01776695      -10.0000000       2181.05737       1.96720386    
   3.93283010       3.01776695      -9.00000000       2181.05737       1.96720386    
   4.33012676       2.50000000      -9.00000000       2181.05737       1.96720386    
   4.33012676       2.50000000      -10.0000000       2181.05737       1.96720386    
   3.93283010       3.01776695      -9.00000000       2716.03516       1.94569421    
   3.93283010       3.01776695      -8.00000000       2716.03516       1.94569421    
   4.33012676       2.50000000      -8.00000000       2716.03516       1.94569421    
   4.33012676       2.50000000      -9.00000000       2716.03516       1.94569421    
   3.93283010       3.01776695      -8.00000000       3819.42261       1.86863399    
   3.93283010       3.01776695      -7.00000000       3819.42261       1.86863399    
   4.33012676       2.50000000      -7.00000000       3819.42261       1.86863399    
   4.33012676       2.50000000      -8.00000000       3819.42261       1.86863399    
   3.93283010       3.01776695      -7.00000000       5189.88428       1.81245780    
   3.93283010       3.01776695      -6.00000000       5189.88428       1.81245780    
   4.33012676       2.50000000      -6.00000000       5189.88428       1.81245780    
   4.33012676       2.50000000      -7.00000000       5189.88428       1.81245780    
   3.93283010       3.01776695      -6.00000000       6717.81982       1.77526534    
   3.93283010       3.01776695      -5.00000000       6717.81982       1.77526534    
   4.33012676       2.50000000      -5.00000000       6717.81982       1.77526534    
   4.33012676       2.50000000      -6.00000000       6717.81982       1.77526534    
   3.93283010       3.01776695      -5.00000000       8336.33594       1.75049996    
   3.93283010       3.01776695      -4.00000000       8336.33594       1.75049996    
   4.33012676       2.50000000      -4.00000000       8336.33594       1.75049996    
   4.33012676       2.50000000      -5.00000000       8336.33594       1.75049996    
   3.93283010       3.01776695      -4.00000000       9994.82715       1.73379529    
   3.93283010       3.01776695      -3.00000000       9994.82715       1.73379529    
   4.33012676       2.50000000      -3.00000000       9994.82715       1.73379529    
   4.33012676       2.50000000      -4.00000000       9994.82715       1.73379529    
   3.93283010       3.01776695      -3.00000000       11647.3096       1.72257471    
   3.93283010       3.01776695      -2.00000000       11647.3096       1.72257471    
   4.33012676       2.50000000      -2.00000000       11647.3096       1.72257471    
   4.33012676       2.50000000      -3.00000000       11647.3096       1.72257471    
   3.93283010       3.01776695      -2.00000000       13248.0830       1.71535099    
   3.93283010       3.01776695      -1.00000000       13248.0830       1.71535099    
   4.33012676       2.50000000      -1.00000000       13248.0830       1.71535099    
   4.33012676       2.50000000      -2.00000000       13248.0830       1.71535099    
   3.93283010       3.01776695      -1.00000000       14711.3906       1.71159971    
   3.93283010       3.01776695       0.00000000       14711.3906       1.71159971    
   4.33012676       2.50000000       0.00000000       14711.3906       1.71159971    
   4.33012676       2.50000000      -1.00000000       14711.3906       1.71159971    
   2.50000000       4.33012676      -10.0000000       3283.62061       1.96229184    
   2.50000000       4.33012676      -9.00000000       3283.62061       1.96229184    
   3.01776695       3.93283010      -9.00000000       3283.62061       1.96229184    
   3.01776695       3.93283010      -10.0000000       3283.62061       1.96229184    
   2.50000000       4.33012676      -9.00000000       4061.25122       1.94360375    
   2.50000000       4.33012676      -8.00000000       4061.25122       1.94360375    
   3.01776695       3.93283010      -8.00000000       4061.25122       1.94360375    
   3.01776695       3.93283010      -9.00000000       4061.25122       1.94360375    
   2.50000000       4.33012676      -8.00000000       5679.76611       1.86868322    
   2.50000000       4.33012676      -7.00000000       5679.76611       1.86868322    
   3.01776695       3.93283010      -7.00000000       5679.76611       1.86868322    
   3.01776695       3.93283010      -8.00000000       5679.76611       1.86868322    
   2.50000000       4.33012676      -7.00000000       7694.37842       1.81324017    
   2.50000000       4.33012676      -6.00000000       7694.37842       1.81324017    
   3.01776695       3.93283010      -6.00000000       7694.37842       1.81324017    
   3.01776695       3.93283010      -7.00000000       7694.37842       1.81324017    
   2.50000000       4.33012676      -6.00000000       9942.55957       1.77628112    
   2.50000000       4.33012676      -5.00000000       9942.55957       1.77628112    
   3.01776695       3.93283010      -5.00000000       9942.55957       1.77628112    
   3.01776695       3.93283010      -6.00000000       9942.55957       1.77628112    
   2.50000000       4.33012676      -5.00000000       12325.3975       1.75157452    
   2.50000000       4.33012676      -4.00000000       12325.3975       1.75157452    
   3.01776695       3.93283010      -4.00000000       12325.3975       1.75157452    
   3.01776695       3.93283010      -5.00000000       12325.3975       1.75157452    
   2.50000000       4.33012676      -4.00000000       14767.1387       1.73488414    
   2.50000000       4.33012676      -3.00000000       14767.1387       1.73488414    
   3.01776695       3.93283010      -3.00000000       14767.1387       1.73488414    
   3.01776695       3.93283010      -4.00000000       14767.1387       1.73488414    
   2.50000000       4.33012676      -3.00000000       17200.3574       1.72366142    
   2.50000000       4.33012676      -2.00000000       17200.3574       1.72366142    
   3.01776695       3.93283010      -2.00000000       17200.3574       1.72366142    
   3.01776695       3.93283010      -3.00000000       17200.3574       1.72366142    
   2.50000000       4.33012676      -2.00000000       19556.6660       1.71644258    
   2.50000000       4.33012676      -1.00000000       19556.6660       1.71644258    
   3.01776695       3.93283010      -1.00000000       19556.6660       1.71644258    
   3.01776695       3.93283010      -2.00000000       19556.6660       1.71644258    
   2.50000000       4.33012676      -1.00000000       21710.8594       1.71270728    
   2.50000000       4.33012676       0.00000000       21710.8594       1.71270728    
   3.01776695       3.93283010       0.00000000       21710.8594       1.71270728    
   3.01776695       3.93283010      -1.00000000       21710.8594       1.71270728    
   3.01776695       3.93283010      -10.0000000       2956.59424       1.96579051    
   3.01776695       3.93283010      -9.00000000       2956.59424       1.96579051    
   3.53553391       3.53553391      -9.00000000       2956.59424       1.96579051    
   3.53553391       3.53553391      -10.0000000       2956.59424       1.96579051    
   3.01776695       3.93283010      -9.00000000       3674.61353       1.94509447    
   3.01776695       3.93283010      -8.00000000       3674.61353       1.94509447    
   3.53553391       3.53553391      -8.00000000       3674.61353       1.94509447    
   3.53553391       3.53553391      -9.00000000       3674.61353       1.94509447    
   3.01776695       3.93283010      -8.00000000       5159.31787       1.86864924    
   3.01776695       3.93283010      -7.00000000       5159.31787       1.86864924    
   3.53553391       3.53553391      -7.00000000       5159.31787       1.86864924    
   3.53553391       3.53553391      -8.00000000       5159.31787       1.86864924    
   3.01776695       3.93283010      -7.00000000       7004.50195       1.81268120    
   3.01776695       3.93283010      -6.00000000       7004.50195       1.81268120    
   3.53553391       3.53553391      -6.00000000       7004.50195       1.81268120    
   3.53553391       3.53553391      -7.00000000       7004.50195       1.81268120    
   3.01776695       3.93283010      -6.00000000       9062.24121       1.77555358    
   3.01776695       3.93283010      -5.00000000       9062.24121       1.77555358    
   3.53553391       3.53553391      -5.00000000       9062.24121       1.77555358    
   3.53553391       3.53553391      -6.00000000       9062.24121       1.77555358    
   3.01776695       3.93283010      -5.00000000       11242.3174       1.75080431    
   3.01776695       3.93283010      -4.00000000       11242.3174       1.75080431    
   3.53553391       3.53553391      -4.00000000       11242.3174       1.75080431    
   3.53553391       3.53553391      -5.00000000       11242.3174       1.75080431    
   3.01776695       3.93283010      -4.00000000       13476.2764       1.73410416    
   3.01776695       3.93283010      -3.00000000       13476.2764       1.73410416    
   3.53553391       3.53553391      -3.00000000       13476.2764       1.73410416    
   3.53553391       3.53553391      -4.00000000       13476.2764       1.73410416    
   3.01776695       3.93283010      -3.00000000       15702.2139       1.72288311    
   3.01776695       3.93283010      -2.00000000       15702.2139       1.72288311    
   3.53553391       3.53553391      -2.00000000       15702.2139       1.72288311    
   3.53553391       3.53553391      -3.00000000       15702.2139       1.72288311    
   3.01776695       3.93283010      -2.00000000       17858.3047       1.71565998    
   3.01776695       3.93283010      -1.00000000       17858.3047       1.71565998    
   3.53553391       3.53553391      -1.00000000       17858.3047       1.71565998    
   3.53553391       3.53553391      -2.00000000       17858.3047       1.71565998    
   3.01776695       3.93283010      -1.00000000       19829.2930       1.71191394    
   3.01776695       3.93283010       0.00000000       19829.2930       1.71191394    
   3.53553391       3.53553391       0.00000000       19829.2930       1.71191394    
   3.53553391       3.53553391      -1.00000000       19829.2930       1.71191394    
   1.29409504       4.82962894      -10.0000000       3736.22729       1.96303499    
   1.29409504       4.82962894      -9.00000000       3736.22729       1.96303499    
   1.89704800       4.57987785      -9.00000000       3736.22729       1.96303499    
   1.89704800       4.57987785      -10.0000000       3736.22729       1.96303499    
   1.29409504       4.82962894      -9.00000000       4625.82520       1.94392002    
   1.29409504       4.82962894      -8.00000000       4625.82520       1.94392002    
   1.89704800       4.57987785      -8.00000000       4625.82520       1.94392002    
   1.89704800       4.57987785      -9.00000000       4625.82520       1.94392002    
   1.29409504       4.82962894      -8.00000000       6474.77393       1.86867583    
   1.29409504       4.82962894      -7.00000000       6474.77393       1.86867583    
   1.89704800       4.57987785      -7.00000000       6474.77393       1.86867583    
   1.89704800       4.57987785      -8.00000000       6474.77393       1.86867583    
   1.29409504       4.82962894      -7.00000000       8775.44336       1.81312072    
   1.29409504       4.82962894      -6.00000000       8775.44336       1.81312072    
   1.89704800       4.57987785      -6.00000000       8775.44336       1.81312072    
   1.89704800       4.57987785      -7.00000000       8775.44336       1.81312072    
   1.29409504       4.82962894      -6.00000000       11342.4727       1.77612484    
   1.29409504       4.82962894      -5.00000000       11342.4727       1.77612484    
   1.89704800       4.57987785      -5.00000000       11342.4727       1.77612484    
   1.89704800       4.57987785      -6.00000000       11342.4727       1.77612484    
   1.29409504       4.82962894      -5.00000000       14063.0205       1.75141013    
   1.29409504       4.82962894      -4.00000000       14063.0205       1.75141013    
   1.89704800       4.57987785      -4.00000000       14063.0205       1.75141013    
   1.89704800       4.57987785      -5.00000000       14063.0205       1.75141013    
   1.29409504       4.82962894      -4.00000000       16850.8125       1.73471713    
   1.29409504       4.82962894      -3.00000000       16850.8125       1.73471713    
   1.89704800       4.57987785      -3.00000000       16850.8125       1.73471713    